ITEM: TIMESTEP
823500
ITEM: NUMBER OF CELLS
5000
ITEM: BOX BOUNDS ss ss pp
-1 1
-0.5 0.5
-0.5 0.5
ITEM: CELLS xc yc f_U[*] f_V[*] f_Tau[1] f_Tau[2] f_Tau[3] f_Press[*] f_Mrho[*] f_Ttra[*] 
-0.99 -0.49 0.0186489 0.0737495 0.00896316 0.00874461 -1.74143e-05 0.00887128 1.56747e-07 271.78 
-0.97 -0.49 -0.109173 0.137759 0.00895116 0.00877474 -2.0097e-05 0.00887262 1.56528e-07 272.202 
-0.95 -0.49 -0.560771 -0.0736014 0.008973 0.00875732 -3.87274e-05 0.00888332 1.57207e-07 271.352 
-0.93 -0.49 -0.779234 0.414365 0.00898242 0.00875842 -4.18153e-05 0.00889394 1.56973e-07 272.082 
-0.91 -0.49 -1.23468 -0.00815276 0.00898302 0.00870918 -2.20147e-05 0.00886509 1.56876e-07 271.366 
-0.99 -0.47 -0.0113462 0.0646563 0.0090129 0.00875228 -2.22317e-05 0.00889043 1.57066e-07 271.814 
-0.89 -0.49 -1.57904 0.254002 0.00903587 0.00872889 -2.52543e-05 0.00891284 1.57005e-07 272.604 
-0.97 -0.47 -0.0695964 0.674847 0.0090113 0.00878495 -3.66047e-05 0.00890765 1.57028e-07 272.406 
-0.87 -0.49 -1.85321 -0.0907947 0.00905228 0.00880507 -9.06059e-06 0.00892127 1.57565e-07 271.892 
-0.95 -0.47 -0.733143 0.919776 0.00901826 0.00877106 -4.23479e-05 0.00890945 1.57446e-07 271.737 
-0.85 -0.49 -1.84718 0.386443 0.00906868 0.00881642 -2.51323e-06 0.00893521 1.57789e-07 271.932 
-0.93 -0.47 -1.56757 0.517756 0.00902646 0.0087399 -3.092e-05 0.00889695 1.56867e-07 272.358 
-0.83 -0.49 -1.88853 0.0607336 0.00908705 0.00881376 1.04172e-05 0.00895957 1.58008e-07 272.294 
-0.91 -0.47 -1.36753 0.17093 0.00902039 0.00873459 -3.35707e-05 0.00890328 1.57207e-07 271.962 
-0.99 -0.45 -0.292939 0.354234 0.00904508 0.00876972 -3.75303e-05 0.00892283 1.57578e-07 271.918 
-0.81 -0.49 -2.11178 0.219007 0.00907042 0.00877847 3.65908e-06 0.00892337 1.5722e-07 272.554 
-0.89 -0.47 -1.77696 0.580963 0.00900137 0.00872392 -5.85459e-05 0.00888201 1.56945e-07 271.765 
-0.97 -0.45 -0.662491 0.679641 0.00906342 0.00878307 -3.81771e-05 0.00894297 1.57467e-07 272.723 
-0.79 -0.49 -2.4542 -0.0796175 0.00907502 0.00875921 2.08318e-05 0.00893117 1.57851e-07 271.7 
-0.87 -0.47 -2.19601 0.231599 0.0090228 0.00876849 -3.91487e-05 0.00892065 1.57504e-07 271.979 
-0.95 -0.45 -0.483039 1.50659 0.00905204 0.00878434 -4.52915e-05 0.00893657 1.57374e-07 272.688 
-0.77 -0.49 -2.48369 0.00898288 0.00907634 0.00879252 3.86756e-05 0.00893845 1.57441e-07 272.63 
-0.85 -0.47 -2.45514 0.32859 0.00905987 0.00881727 -1.92825e-05 0.00895742 1.57838e-07 272.523 
-0.93 -0.45 -0.728393 0.849208 0.00903194 0.00869271 -4.08465e-05 0.00889226 1.57003e-07 271.978 
-0.83 -0.47 -2.73962 0.228468 0.00906402 0.00878954 -3.15615e-07 0.00893739 1.57582e-07 272.355 
-0.91 -0.45 -1.54293 0.641128 0.00905349 0.00877116 -2.04149e-05 0.00893382 1.57918e-07 271.666 
-0.99 -0.43 -0.556057 1.10232 0.00910558 0.00878325 -4.03706e-05 0.00896629 1.58078e-07 272.378 
-0.81 -0.47 -2.6244 0.241633 0.00908122 0.00878912 1.08942e-05 0.00894165 1.57642e-07 272.381 
-0.89 -0.45 -1.86302 0.710834 0.00905324 0.00873379 -5.56383e-05 0.00890934 1.57215e-07 272.133 
-0.97 -0.43 -0.694615 0.678651 0.00911192 0.00875737 -3.13753e-05 0.00895331 1.57832e-07 272.407 
-0.79 -0.47 -2.8358 0.386219 0.00908636 0.008718 2.22874e-05 0.00891385 1.57279e-07 272.16 
-0.87 -0.45 -1.9534 0.522225 0.00904688 0.00876437 -4.20533e-05 0.00891512 1.57347e-07 272.081 
-0.95 -0.43 -0.725442 1.1257 0.00912075 0.00879391 -2.72766e-05 0.00896256 1.58076e-07 272.268 
-0.77 -0.47 -2.84027 -0.182464 0.00908981 0.00880666 2.42175e-05 0.00895064 1.57819e-07 272.349 
-0.85 -0.45 -2.4612 0.422985 0.00903499 0.00878233 -2.84355e-05 0.00892639 1.57516e-07 272.134 
-0.93 -0.43 -0.929145 1.53823 0.00912372 0.00871258 -4.87925e-05 0.0089326 1.57531e-07 272.297 
-0.75 -0.47 -2.96542 0.350012 0.00910171 0.00880597 2.14516e-05 0.00896015 1.5773e-07 272.791 
-0.83 -0.45 -2.4726 0.60527 0.00906342 0.00877366 -2.75712e-05 0.00892495 1.57478e-07 272.155 
-0.91 -0.43 -1.61881 1.22982 0.00911638 0.00873688 -3.92409e-05 0.00892127 1.57362e-07 272.243 
-0.99 -0.41 -0.142651 1.77995 0.00910646 0.0087831 -5.4152e-05 0.00897108 1.58282e-07 272.172 
-0.81 -0.45 -2.55673 0.464619 0.00908422 0.00876661 -9.759e-06 0.00893948 1.5739e-07 272.75 
-0.89 -0.43 -1.75121 1.00196 0.00911567 0.00874818 -2.57913e-05 0.00893063 1.57615e-07 272.091 
-0.97 -0.41 -0.73205 1.05727 0.00911902 0.0087593 -6.005e-05 0.00894438 1.5784e-07 272.121 
-0.79 -0.45 -2.86607 0.694674 0.00909707 0.00872881 1.40228e-05 0.00891646 1.57857e-07 271.244 
-0.87 -0.43 -1.87838 0.560021 0.00910366 0.00876267 -4.94578e-05 0.00893737 1.57713e-07 272.128 
-0.95 -0.41 -1.18958 1.22093 0.00912612 0.00877703 -3.03986e-05 0.00894911 1.57914e-07 272.137 
-0.77 -0.45 -3.41381 0.0209205 0.00912085 0.00879903 6.75053e-06 0.00895304 1.57915e-07 272.255 
-0.85 -0.43 -2.0315 0.910269 0.0091045 0.00878732 -2.86623e-05 0.00895595 1.57842e-07 272.47 
-0.93 -0.41 -1.50682 2.03457 0.00911599 0.00871105 -2.68983e-05 0.00893132 1.57517e-07 272.282 
-0.75 -0.45 -3.6635 0.496282 0.00912525 0.00881393 6.02204e-06 0.00897518 1.58356e-07 272.169 
-0.83 -0.43 -2.74896 1.00286 0.00908766 0.00877259 -3.4361e-05 0.00894583 1.5757e-07 272.632 
-0.91 -0.41 -1.16402 1.40183 0.00912458 0.00874648 -4.18132e-05 0.00894237 1.57698e-07 272.306 
-0.99 -0.39 -0.381001 2.16188 0.00909548 0.00876823 -4.73859e-05 0.00894988 1.57866e-07 272.245 
-0.81 -0.43 -3.16137 0.316281 0.00909111 0.00873017 -1.29239e-05 0.00894962 1.57708e-07 272.509 
-0.89 -0.41 -1.48648 1.23869 0.00912487 0.00875536 -4.00727e-05 0.00894738 1.57592e-07 272.641 
-0.97 -0.39 -0.966546 1.59133 0.00909169 0.00877726 -3.76708e-05 0.00894662 1.57867e-07 272.143 
-0.79 -0.43 -2.67328 0.772067 0.00911192 0.0087523 -1.32255e-05 0.00895186 1.57958e-07 272.147 
-0.87 -0.41 -2.20236 0.823833 0.00911546 0.00874932 -1.89583e-05 0.00894185 1.57544e-07 272.557 
-0.95 -0.39 -1.24789 1.44933 0.00908417 0.00874438 -4.04077e-05 0.00891848 1.57266e-07 272.323 
-0.77 -0.43 -2.99873 0.822773 0.00913242 0.00877863 -5.30265e-06 0.00897167 1.57895e-07 272.858 
-0.85 -0.41 -2.19 1.08148 0.00912589 0.0087851 -3.86117e-05 0.00896444 1.5814e-07 272.215 
-0.93 -0.39 -0.520812 1.81519 0.0091137 0.00874091 -2.95682e-05 0.0089254 1.57462e-07 272.196 
-0.83 -0.41 -2.18489 1.47327 0.00913071 0.00875481 -2.29075e-05 0.00895818 1.57706e-07 272.773 
-0.91 -0.39 -1.04039 1.76505 0.00909745 0.00873626 -5.34879e-05 0.0089241 1.57371e-07 272.315 
-0.99 -0.37 -0.0371086 2.7453 0.00912505 0.00876987 -4.64209e-05 0.00898614 1.58902e-07 271.565 
-0.81 -0.41 -2.48395 0.84964 0.00912359 0.00873251 -1.35337e-05 0.0089532 1.58038e-07 272.049 
-0.89 -0.39 -1.08877 1.28212 0.00910493 0.00875222 -3.18061e-05 0.00895019 1.57804e-07 272.361 
-0.97 -0.37 -0.314958 2.06373 0.00912234 0.00877249 -4.37251e-05 0.00897185 1.5828e-07 272.199 
-0.79 -0.41 -3.21524 0.517598 0.00914498 0.00876565 -2.91324e-05 0.00896271 1.5806e-07 272.301 
-0.87 -0.39 -1.20322 1.11946 0.00912695 0.00877372 -5.842e-05 0.00896522 1.57785e-07 272.851 
-0.95 -0.37 -0.697201 1.69834 0.00912621 0.00873478 -4.72404e-05 0.0089245 1.57587e-07 271.953 
-0.77 -0.41 -4.035 1.14072 0.00914663 0.00875408 -1.96884e-05 0.00895858 1.58106e-07 272.096 
-0.85 -0.39 -1.90037 1.35112 0.00914586 0.00877639 -5.14883e-05 0.00898259 1.58689e-07 271.823 
-0.93 -0.37 -1.417 1.55692 0.00914307 0.0087371 -5.84337e-05 0.00895135 1.58158e-07 271.786 
-0.75 -0.41 -4.07971 1.62488 0.00918129 0.00880193 -6.23101e-06 0.00900691 1.58712e-07 272.519 
-0.83 -0.39 -2.26167 1.80339 0.00914887 0.00872577 -4.12445e-05 0.00896076 1.58223e-07 271.959 
-0.91 -0.37 -1.2029 1.94235 0.00915554 0.00874404 -4.09469e-05 0.00896453 1.58179e-07 272.15 
-0.99 -0.35 -0.0521851 2.70208 0.00906161 0.00875804 -6.83254e-05 0.00894156 1.58304e-07 271.238 
-0.81 -0.39 -2.46029 1.25566 0.00917879 0.00874644 -1.7802e-05 0.00899384 1.58156e-07 273.079 
-0.89 -0.37 -1.39035 1.59356 0.00916061 0.00873779 -4.2601e-05 0.00895919 1.58067e-07 272.182 
-0.97 -0.35 -0.160294 2.43807 0.00909125 0.00876015 -6.13555e-05 0.00894259 1.58222e-07 271.411 
-0.79 -0.39 -3.38113 1.74126 0.00916197 0.00875812 -2.96084e-05 0.00898152 1.5819e-07 272.647 
-0.87 -0.37 -1.95967 1.7597 0.00917715 0.00878342 -5.38697e-05 0.00897509 1.58171e-07 272.485 
-0.95 -0.35 -0.423101 2.24597 0.00910825 0.00873839 -6.18854e-05 0.0089232 1.57851e-07 271.458 
-0.77 -0.39 -4.18344 1.39546 0.00916431 0.00875281 -3.62672e-05 0.0089855 1.58778e-07 271.759 
-0.85 -0.37 -2.36435 1.60923 0.0091454 0.00877442 -5.184e-05 0.00896665 1.58481e-07 271.696 
-0.93 -0.35 -0.930413 2.10669 0.00912307 0.00872193 -6.22627e-05 0.0089318 1.58037e-07 271.401 
-0.83 -0.37 -2.59832 2.10083 0.00914406 0.00872229 -4.02012e-05 0.00894355 1.57898e-07 271.996 
-0.91 -0.35 -1.17624 1.85426 0.00911395 0.00874543 -5.26678e-05 0.00892681 1.5783e-07 271.604 
-0.81 -0.37 -3.15835 1.50379 0.00915441 0.00872893 -3.6415e-05 0.00896507 1.58224e-07 272.089 
-0.89 -0.35 -1.54618 2.14768 0.00913055 0.00874579 -6.70168e-05 0.00894385 1.57906e-07 271.992 
-0.79 -0.37 -3.63059 2.50679 0.00916276 0.00876834 -3.62545e-05 0.0089879 1.58406e-07 272.469 
-0.87 -0.35 -2.21397 2.18127 0.00913565 0.00877177 -5.05637e-05 0.00897038 1.58461e-07 271.844 
-0.77 -0.37 -3.93816 2.21472 0.00916524 0.00875458 -2.85793e-05 0.00898409 1.58629e-07 271.971 
-0.85 -0.35 -2.30735 2.32747 0.00917219 0.00876129 -5.29149e-05 0.00898517 1.58673e-07 271.927 
-0.83 -0.35 -2.91174 2.33086 0.00919215 0.00872329 -4.05893e-05 0.00897957 1.58805e-07 271.532 
-0.81 -0.35 -3.6886 2.03746 0.00919405 0.00871972 -5.11318e-05 0.00897516 1.58311e-07 272.247 
-0.79 -0.35 -3.78284 2.62439 0.00921608 0.00876518 -2.54669e-05 0.00898876 1.58652e-07 272.073 
-0.77 -0.35 -3.56925 2.43732 0.00921352 0.00876766 -3.69475e-05 0.00899904 1.58757e-07 272.204 
-0.75 -0.35 -4.11931 2.55777 0.00921421 0.00876962 -2.68832e-05 0.00901532 1.59198e-07 271.94 
-0.75 -0.49 -2.72491 0.0834125 0.00907709 0.00879621 1.99963e-05 0.00893301 1.57246e-07 272.803 
-0.75 -0.43 -4.00558 0.724568 0.00914077 0.00882102 9.00237e-06 0.00898547 1.58388e-07 272.426 
-0.75 -0.39 -4.87102 1.7669 0.00916922 0.00878482 -1.43382e-05 0.00900383 1.58751e-07 272.358 
-0.75 -0.37 -4.01347 1.91709 0.00915134 0.00876284 -3.29967e-05 0.00897307 1.58306e-07 272.191 
-0.77 -0.33 -3.93086 2.6725 0.00917071 0.00875646 -4.11804e-05 0.00896471 1.58469e-07 271.657 
-0.73 -0.49 -2.88018 0.321496 0.00907658 0.00880782 1.5414e-05 0.00895442 1.57532e-07 272.961 
-0.73 -0.47 -3.27141 0.256928 0.00911353 0.00881573 2.68431e-06 0.00898734 1.58378e-07 272.5 
-0.73 -0.45 -3.73114 0.601726 0.00912922 0.00881311 6.5199e-06 0.00896932 1.58489e-07 271.763 
-0.73 -0.43 -4.83475 1.28834 0.00913761 0.00881609 1.04388e-05 0.00898838 1.58577e-07 272.189 
-0.73 -0.41 -4.64164 1.51965 0.00918323 0.00882503 8.73883e-06 0.0090168 1.58935e-07 272.436 
-0.73 -0.39 -4.65839 1.81435 0.00918919 0.00880413 -3.26515e-06 0.00900378 1.58492e-07 272.802 
-0.73 -0.37 -4.53228 1.92844 0.00916447 0.00881485 -3.36592e-05 0.00899325 1.58799e-07 271.956 
-0.73 -0.35 -4.44561 2.38449 0.00919101 0.00881289 -1.60996e-05 0.00901248 1.58658e-07 272.78 
-0.81 -0.29 -3.14386 3.60998 0.0091532 0.00870189 -7.56335e-05 0.00892881 1.57652e-07 271.972 
-0.89 -0.27 -1.86352 3.92493 0.00908726 0.0087031 -9.18347e-05 0.00889651 1.57368e-07 271.477 
-0.97 -0.25 -0.582014 3.80199 0.00910226 0.00871997 -0.000106453 0.00891462 1.57391e-07 271.99 
-0.83 -0.29 -2.83278 3.36293 0.00912798 0.00871357 -8.41035e-05 0.00893314 1.57173e-07 272.934 
-0.91 -0.27 -1.39408 4.12859 0.00909364 0.00868622 -9.62363e-05 0.0088999 1.57416e-07 271.498 
-0.99 -0.25 -0.410519 3.75186 0.00907828 0.00871989 -0.000108686 0.00891723 1.57817e-07 271.335 
-0.79 -0.29 -3.43894 3.56324 0.00917742 0.00874316 -6.15624e-05 0.00895658 1.58285e-07 271.726 
-0.87 -0.27 -2.02708 3.71052 0.00913028 0.00877087 -8.98343e-05 0.00895433 1.57879e-07 272.357 
-0.95 -0.25 -0.396837 3.98546 0.00911605 0.00874633 -0.000108746 0.00894094 1.58064e-07 271.633 
-0.77 -0.29 -3.90239 3.37069 0.00918098 0.00875288 -5.30508e-05 0.00896708 1.58786e-07 271.188 
-0.85 -0.27 -2.25647 3.6345 0.00913662 0.00873583 -6.66272e-05 0.0089397 1.57738e-07 272.156 
-0.93 -0.25 -0.467503 4.04998 0.00909804 0.00868929 -9.16619e-05 0.00890815 1.5754e-07 271.536 
-0.75 -0.29 -4.88588 3.33638 0.00917844 0.00875613 -5.32688e-05 0.00898725 1.58635e-07 272.056 
-0.83 -0.27 -2.79473 3.69005 0.00917317 0.00875287 -7.00999e-05 0.00897763 1.58598e-07 271.828 
-0.91 -0.25 -1.0482 3.99499 0.00910932 0.00871356 -9.53744e-05 0.00891782 1.57642e-07 271.655 
-0.99 -0.23 -0.01788 4.33587 0.00904894 0.008722 -0.000133038 0.00891715 1.57418e-07 272.021 
-0.81 -0.27 -3.33758 3.90301 0.00915291 0.00869888 -9.2019e-05 0.00892617 1.57624e-07 271.94 
-0.89 -0.25 -1.41986 4.19175 0.00910458 0.00869248 -0.000115681 0.00890445 1.57438e-07 271.598 
-0.97 -0.23 -0.0444268 3.55411 0.00907842 0.0087313 -0.000131496 0.00891693 1.57912e-07 271.163 
-0.79 -0.27 -3.79382 4.15493 0.0091775 0.00872047 -8.21808e-05 0.00893099 1.57978e-07 271.477 
-0.87 -0.25 -1.88466 4.27472 0.00913319 0.00874718 -9.7284e-05 0.00895368 1.5794e-07 272.233 
-0.95 -0.23 -0.552636 4.00676 0.00909626 0.00872266 -0.000116698 0.00891934 1.57625e-07 271.729 
-0.77 -0.27 -4.02469 3.74838 0.00918597 0.00874565 -5.01898e-05 0.00895851 1.58331e-07 271.707 
-0.85 -0.25 -2.3905 4.13938 0.00916259 0.00874658 -0.000114354 0.00895292 1.58088e-07 271.955 
-0.93 -0.23 -0.837433 4.20611 0.00911263 0.00869527 -0.000115615 0.00891335 1.57481e-07 271.796 
-0.83 -0.25 -3.24645 4.36361 0.00917165 0.00871972 -9.2134e-05 0.00894217 1.58213e-07 271.414 
-0.91 -0.23 -1.21004 4.79195 0.00912632 0.00870677 -0.000101078 0.00892893 1.57437e-07 272.347 
-0.99 -0.21 0.398951 3.77043 0.00916976 0.0087451 -0.000125565 0.00897455 1.58524e-07 271.861 
-0.81 -0.25 -3.81778 4.16622 0.00917946 0.00872311 -7.32806e-05 0.00896042 1.58204e-07 271.983 
-0.89 -0.23 -1.74353 4.55681 0.00915641 0.00870409 -0.000114054 0.00894536 1.57935e-07 271.987 
-0.97 -0.21 0.472869 3.93304 0.00914267 0.00870531 -0.000126897 0.00893869 1.58145e-07 271.424 
-0.79 -0.25 -4.10232 4.63288 0.00916392 0.0086883 -8.71609e-05 0.00893088 1.58099e-07 271.267 
-0.87 -0.23 -2.09996 4.4006 0.00917687 0.00874071 -0.000136504 0.0089608 1.58486e-07 271.51 
-0.95 -0.21 -0.217352 4.50065 0.0091159 0.00870251 -0.000123378 0.00891894 1.57483e-07 271.962 
-0.77 -0.25 -4.44359 3.61053 0.00917409 0.00872345 -7.19503e-05 0.00894836 1.58117e-07 271.766 
-0.85 -0.23 -2.61485 4.95598 0.00915953 0.00874999 -9.85962e-05 0.00896071 1.58029e-07 272.292 
-0.93 -0.21 -0.888037 5.02395 0.00912521 0.0086948 -0.000114346 0.00890885 1.5705e-07 272.404 
-0.83 -0.23 -3.21759 4.71794 0.00913494 0.00869638 -0.000100321 0.00892837 1.57478e-07 272.259 
-0.91 -0.21 -1.1706 4.64999 0.00914511 0.00871771 -0.00013081 0.00893829 1.57653e-07 272.259 
-0.99 -0.19 -0.0418315 4.11451 0.00905898 0.00872142 -0.000140719 0.00890434 1.57274e-07 271.878 
-0.81 -0.23 -3.32664 4.41544 0.00917264 0.0087184 -0.00010344 0.00896057 1.58008e-07 272.324 
-0.89 -0.21 -1.53541 5.31147 0.0091501 0.00872982 -0.000132585 0.00896729 1.58086e-07 272.394 
-0.97 -0.19 -0.7523 4.23455 0.00910263 0.00870708 -0.000142517 0.00890867 1.5779e-07 271.121 
-0.79 -0.23 -3.36944 4.83524 0.00919188 0.00870054 -8.45641e-05 0.00894758 1.57909e-07 272.1 
-0.87 -0.21 -2.34497 4.89921 0.0091328 0.00868448 -0.000125373 0.00891639 1.57651e-07 271.596 
-0.95 -0.19 -0.84114 5.17521 0.00910232 0.00870127 -0.000109341 0.00890426 1.57466e-07 271.545 
-0.77 -0.23 -3.76306 4.35424 0.0091858 0.00872224 -8.83632e-05 0.00895233 1.58303e-07 271.567 
-0.85 -0.21 -3.34555 5.56533 0.00915686 0.00873881 -9.90723e-05 0.00895155 1.58093e-07 271.904 
-0.93 -0.19 -0.563341 5.13144 0.00912161 0.00870057 -0.000120765 0.0089253 1.57904e-07 271.432 
-0.75 -0.23 -4.46507 3.798 0.00917327 0.00874748 -8.33748e-05 0.00896728 1.5872e-07 271.306 
-0.83 -0.21 -3.48041 5.04082 0.00915975 0.00873025 -9.61915e-05 0.00895067 1.58054e-07 271.945 
-0.91 -0.19 -1.09826 5.47176 0.00912987 0.00870807 -0.000129687 0.00892203 1.5764e-07 271.787 
-0.81 -0.21 -4.07718 4.70805 0.00912465 0.00869429 -9.19218e-05 0.0089228 1.5763e-07 271.827 
-0.89 -0.19 -1.73169 5.37894 0.00913481 0.00872349 -0.000121255 0.00894338 1.57804e-07 272.153 
-0.79 -0.21 -4.39555 4.78501 0.00911597 0.00869526 -9.06514e-05 0.00891723 1.57796e-07 271.372 
-0.87 -0.19 -2.02894 5.68913 0.00913953 0.00870166 -0.000122005 0.00893213 1.57891e-07 271.661 
-0.77 -0.21 -4.25693 4.93135 0.00913915 0.00871984 -8.41203e-05 0.00894728 1.58188e-07 271.612 
-0.85 -0.19 -2.28674 5.67573 0.00911468 0.00868224 -0.000121394 0.00890203 1.57849e-07 270.818 
-0.75 -0.21 -4.70399 4.6058 0.00916095 0.00875216 -9.69724e-05 0.00898187 1.58767e-07 271.667 
-0.83 -0.19 -2.51256 5.68708 0.00911216 0.00872463 -7.43852e-05 0.00892751 1.57603e-07 272.018 
-0.81 -0.19 -3.36188 5.11951 0.00912194 0.00869824 -9.24399e-05 0.00892827 1.57808e-07 271.688 
-0.79 -0.19 -3.34157 5.27088 0.00913819 0.00869795 -9.43692e-05 0.00893352 1.58158e-07 271.245 
-0.77 -0.19 -3.88584 4.92449 0.00914599 0.00873482 -0.000112426 0.0089603 1.58833e-07 270.902 
-0.99 -0.33 0.430762 2.60979 0.00909144 0.00876492 -8.26909e-05 0.00893907 1.58076e-07 271.554 
-0.97 -0.33 0.0464734 2.91532 0.00911195 0.00875644 -9.49151e-05 0.00894836 1.57858e-07 272.212 
-0.91 -0.33 -0.903062 2.55171 0.00915552 0.00874491 -7.3211e-05 0.00894308 1.57879e-07 272.014 
-0.99 -0.31 -0.307373 2.91927 0.00912647 0.00875859 -8.1713e-05 0.00895944 1.58439e-07 271.55 
-0.97 -0.31 -0.352576 2.58317 0.00912227 0.00875899 -7.40219e-05 0.00896036 1.58016e-07 272.305 
-0.87 -0.33 -2.43324 2.51173 0.00914586 0.00876927 -7.77421e-05 0.00896294 1.58751e-07 271.121 
-0.95 -0.31 -0.99019 3.09725 0.00911831 0.00871044 -8.71293e-05 0.00892783 1.57622e-07 271.995 
-0.85 -0.33 -2.4096 2.3057 0.00914296 0.00874576 -6.71519e-05 0.00897055 1.58333e-07 272.068 
-0.93 -0.31 -1.07036 2.90568 0.00913495 0.00871789 -9.07604e-05 0.00892135 1.57435e-07 272.119 
-0.91 -0.31 -1.45647 3.03576 0.00915808 0.00873016 -6.09253e-05 0.00893921 1.57716e-07 272.178 
-0.99 -0.29 -0.022736 2.85838 0.00904998 0.00875047 -0.000104468 0.00891715 1.57747e-07 271.453 
-0.81 -0.33 -3.04901 3.15383 0.0091499 0.0087092 -5.01566e-05 0.00894998 1.57618e-07 272.675 
-0.89 -0.31 -1.45908 3.44516 0.0091625 0.00874488 -7.19218e-05 0.00895923 1.58368e-07 271.666 
-0.97 -0.29 -0.296958 3.44864 0.00908003 0.00874542 -9.30808e-05 0.00891532 1.57545e-07 271.745 
-0.87 -0.31 -1.80601 3.20863 0.00915725 0.00876543 -6.49318e-05 0.00897897 1.58628e-07 271.817 
-0.95 -0.29 -0.518064 3.13156 0.00909755 0.00870994 -8.32842e-05 0.0089166 1.57223e-07 272.342 
-0.85 -0.31 -2.75754 2.56037 0.00913245 0.00874377 -6.36628e-05 0.00894715 1.58005e-07 271.921 
-0.93 -0.29 -1.28853 3.29632 0.00910969 0.00873971 -9.50638e-05 0.00892575 1.57642e-07 271.897 
-0.83 -0.31 -3.19215 3.09915 0.00913955 0.00871662 -5.8458e-05 0.00894102 1.57616e-07 272.407 
-0.91 -0.29 -1.61726 3.54556 0.00909279 0.00868315 -9.36587e-05 0.0088975 1.57275e-07 271.668 
-0.99 -0.27 -0.0760433 3.20293 0.00908849 0.00874307 -0.000109446 0.00892922 1.57605e-07 272.065 
-0.81 -0.31 -3.34318 3.31433 0.00915298 0.00871443 -5.30021e-05 0.00894833 1.57627e-07 272.611 
-0.89 -0.29 -1.89057 3.67039 0.00911905 0.00873255 -7.22169e-05 0.00892337 1.57966e-07 271.266 
-0.97 -0.27 -0.432633 3.86298 0.00906428 0.00871728 -9.88282e-05 0.00890819 1.57209e-07 272.108 
-0.79 -0.31 -3.46506 3.00314 0.00915078 0.0087478 -5.75127e-05 0.00895551 1.58403e-07 271.493 
-0.87 -0.29 -2.21932 3.55033 0.00911619 0.00875043 -4.45727e-05 0.00893492 1.57978e-07 271.596 
-0.95 -0.27 -0.801785 3.5457 0.0090816 0.00872266 -0.000103771 0.00889933 1.57192e-07 271.867 
-0.77 -0.31 -3.93772 2.81532 0.00916675 0.00875988 -4.78714e-05 0.00896154 1.58964e-07 270.717 
-0.85 -0.29 -2.58329 3.40879 0.00915076 0.00875302 -6.22077e-05 0.00896142 1.58458e-07 271.577 
-0.93 -0.27 -1.19336 3.38223 0.00908798 0.00872627 -9.49122e-05 0.008915 1.57335e-07 272.099 
-0.95 -0.33 0.00519773 2.51491 0.00912958 0.00872302 -6.8889e-05 0.00893592 1.58039e-07 271.523 
-0.93 -0.33 -0.614949 2.74941 0.00914097 0.00872287 -5.94294e-05 0.00893397 1.57707e-07 272.035 
-0.89 -0.33 -1.9439 2.80266 0.00914558 0.00874025 -5.79669e-05 0.00894517 1.57997e-07 271.875 
-0.83 -0.33 -2.58882 2.73123 0.00914572 0.00872766 -5.51542e-05 0.00896085 1.5828e-07 271.866 
-0.75 -0.31 -4.34095 2.78243 0.00918434 0.00874077 -3.79714e-05 0.00897831 1.58576e-07 271.886 
-0.75 -0.27 -4.2548 4.30932 0.00918555 0.00876119 -5.59683e-05 0.00895626 1.58207e-07 271.852 
-0.75 -0.25 -4.13272 4.17042 0.0092058 0.00876823 -5.53057e-05 0.00898268 1.5864e-07 271.909 
-0.75 -0.19 -4.45397 4.88861 0.00914217 0.00873476 -0.000105359 0.0089581 1.58597e-07 271.239 
-0.79 -0.33 -3.68003 2.61694 0.00915021 0.00875094 -3.56877e-05 0.00895225 1.58079e-07 271.95 
-0.75 -0.33 -3.94044 2.57911 0.00918092 0.00875342 -3.18335e-05 0.00898178 1.58619e-07 271.917 
-0.81 -0.17 -3.34826 5.93859 0.0091304 0.00871201 -9.40939e-05 0.00892258 1.58007e-07 271.171 
-0.79 -0.17 -4.14196 5.36237 0.00912903 0.00872896 -0.000119983 0.00894341 1.58181e-07 271.506 
-0.75 -0.17 -4.54361 5.55031 0.00916311 0.00872213 -0.000117833 0.00895697 1.5837e-07 271.592 
-0.73 -0.31 -4.52514 3.13643 0.009181 0.00881352 -5.12207e-05 0.00901272 1.58859e-07 272.443 
-0.73 -0.29 -4.94387 2.86626 0.00919071 0.00881041 -4.41972e-05 0.00901524 1.59381e-07 271.626 
-0.73 -0.27 -4.95342 2.69962 0.00918254 0.00879131 -6.53377e-05 0.00900106 1.58794e-07 272.201 
-0.73 -0.25 -4.13535 3.42951 0.00922291 0.00878702 -6.86303e-05 0.00901778 1.59263e-07 271.904 
-0.73 -0.23 -4.68492 3.73648 0.00917937 0.00878195 -7.03478e-05 0.00898834 1.58739e-07 271.911 
-0.73 -0.21 -5.21746 3.87974 0.00917559 0.00877187 -8.73212e-05 0.00896859 1.58199e-07 272.24 
-0.73 -0.19 -4.69818 4.61163 0.00915178 0.00877353 -8.19705e-05 0.00897551 1.58543e-07 271.858 
-0.79 -0.05 -3.14186 7.53881 0.00905424 0.00870547 -0.000150435 0.00887606 1.57177e-07 271.182 
-0.87 -0.03 -2.46579 8.92217 0.00899378 0.00858955 -0.000187951 0.0088158 1.55803e-07 271.717 
-0.83 -0.05 -3.15471 7.74449 0.00902101 0.00867252 -0.000134916 0.00888331 1.57037e-07 271.646 
-0.91 -0.03 -1.73719 8.45781 0.0089915 0.00863142 -0.000184795 0.00882693 1.55979e-07 271.753 
-0.81 -0.05 -2.75835 7.99171 0.00905241 0.0087 -0.000139579 0.00889114 1.57432e-07 271.203 
-0.89 -0.03 -2.1351 8.38729 0.00899336 0.00864336 -0.000165422 0.00884615 1.56283e-07 271.815 
-0.77 -0.05 -3.5376 7.19047 0.00906916 0.0087441 -0.000142818 0.00891744 1.57795e-07 271.38 
-0.85 -0.03 -2.24181 7.68476 0.00899276 0.00864041 -0.000169186 0.0088396 1.56623e-07 271.024 
-0.75 -0.05 -3.61416 6.52529 0.0090694 0.00875251 -0.000170605 0.00892983 1.5774e-07 271.851 
-0.83 -0.03 -2.3555 8.0071 0.00900952 0.00866934 -0.000166942 0.0088573 1.57009e-07 270.898 
-0.81 -0.03 -3.20575 7.90196 0.00900208 0.00867887 -0.000150727 0.00886026 1.57105e-07 270.823 
-0.79 -0.03 -3.06766 8.4444 0.00905011 0.00871927 -0.000154638 0.00890559 1.57659e-07 271.252 
-0.77 -0.03 -3.50096 7.0725 0.00905114 0.00873454 -0.000161662 0.00890537 1.57492e-07 271.534 
-0.95 -0.17 -0.855502 5.11471 0.00907076 0.00870321 -0.00015093 0.00889029 1.57461e-07 271.127 
-0.99 -0.15 -0.0724616 4.26791 0.00907467 0.00870879 -0.0001614 0.00890775 1.57328e-07 271.89 
-0.89 -0.17 -1.36754 5.67195 0.00911999 0.00870094 -0.000125216 0.00891828 1.57328e-07 272.211 
-0.97 -0.15 -0.534935 5.48996 0.00909117 0.00868197 -0.000169303 0.00889705 1.5721e-07 271.767 
-0.95 -0.15 -1.14451 5.56691 0.00909001 0.00870536 -0.000174068 0.00892024 1.57746e-07 271.549 
-0.93 -0.15 -1.36267 5.36215 0.00907884 0.0086885 -0.000157005 0.00890877 1.57599e-07 271.453 
-0.83 -0.17 -2.7447 5.88662 0.00911468 0.00871863 -9.2682e-05 0.00891855 1.5769e-07 271.594 
-0.91 -0.15 -1.3935 6.12441 0.00910084 0.008708 -0.000157013 0.00890197 1.57499e-07 271.418 
-0.99 -0.13 -0.448859 4.73632 0.00907011 0.00871339 -0.000175631 0.00891263 1.57648e-07 271.486 
-0.89 -0.15 -1.31374 6.10847 0.00910606 0.00867383 -0.000131106 0.00890301 1.57477e-07 271.488 
-0.97 -0.13 -0.6471 5.74585 0.00909719 0.00868835 -0.000162522 0.00890272 1.57356e-07 271.688 
-0.87 -0.15 -1.71035 6.6159 0.00911473 0.0087042 -0.000111856 0.00893541 1.57668e-07 272.145 
-0.95 -0.13 -0.91173 6.1312 0.00911142 0.00868996 -0.000185824 0.00891535 1.57444e-07 271.92 
-0.77 -0.17 -4.14384 5.28965 0.00913911 0.00872178 -0.000111298 0.00894944 1.58259e-07 271.556 
-0.85 -0.15 -2.47799 6.47249 0.00911387 0.00864642 -0.000109905 0.00889262 1.57302e-07 271.472 
-0.93 -0.13 -1.50128 5.86092 0.00911789 0.00868842 -0.000160323 0.00891819 1.57507e-07 271.898 
-0.83 -0.15 -3.16132 5.96466 0.00912726 0.00871393 -0.000107792 0.00893231 1.58015e-07 271.453 
-0.91 -0.13 -1.88394 5.99504 0.00911119 0.0087064 -0.000158865 0.00892975 1.57843e-07 271.672 
-0.99 -0.11 -0.154518 5.35663 0.00906288 0.00868485 -0.000186503 0.00889043 1.5692e-07 272.066 
-0.81 -0.15 -3.40279 6.52997 0.00913454 0.00873116 -0.000114255 0.00894208 1.5814e-07 271.535 
-0.89 -0.13 -2.57689 6.07135 0.00911532 0.00864732 -0.000145613 0.00890338 1.57913e-07 270.75 
-0.97 -0.11 -0.591766 5.99582 0.00906269 0.00870917 -0.000193571 0.00891244 1.57491e-07 271.751 
-0.79 -0.15 -3.78131 5.48123 0.00914881 0.00873745 -0.000124935 0.00895045 1.58297e-07 271.52 
-0.87 -0.13 -2.53234 6.84882 0.00911694 0.00866431 -0.000122009 0.00892156 1.57942e-07 271.252 
-0.95 -0.11 -0.753092 6.2891 0.00906126 0.00866383 -0.000178529 0.00888633 1.57042e-07 271.73 
-0.77 -0.15 -4.03458 5.32023 0.00915671 0.00871331 -0.000137685 0.00894686 1.58428e-07 271.187 
-0.85 -0.13 -2.57914 6.88848 0.00912921 0.00866803 -0.000106442 0.00890784 1.5776e-07 271.148 
-0.93 -0.11 -1.20855 6.41566 0.00908214 0.00868702 -0.000174139 0.00891617 1.57868e-07 271.215 
-0.75 -0.15 -4.02219 5.67419 0.00913231 0.00871045 -0.000117803 0.00893979 1.58322e-07 271.154 
-0.83 -0.13 -2.57138 6.48622 0.00914224 0.00869472 -0.000123608 0.008941 1.57896e-07 271.923 
-0.91 -0.11 -1.79041 6.73868 0.00907599 0.008685 -0.000165199 0.00890351 1.57489e-07 271.482 
-0.99 -0.09 0.0325312 5.51359 0.00901038 0.00867597 -0.000220303 0.00884896 1.56117e-07 272.189 
-0.81 -0.13 -3.13546 7.07878 0.00912713 0.00873042 -0.000115898 0.00894474 1.58394e-07 271.181 
-0.89 -0.11 -2.60478 7.07874 0.00907689 0.00862977 -0.000141367 0.00886239 1.5713e-07 270.845 
-0.97 -0.09 -0.446766 6.85706 0.00905048 0.00870249 -0.000195997 0.00889891 1.57243e-07 271.766 
-0.79 -0.13 -3.02623 5.76985 0.0091196 0.00874401 -0.000124933 0.00893817 1.57877e-07 271.87 
-0.87 -0.11 -3.23868 6.64075 0.00906301 0.00862577 -0.000124719 0.00887082 1.57227e-07 270.936 
-0.95 -0.09 -0.709055 6.51244 0.00906993 0.0086723 -0.00018363 0.00889707 1.56921e-07 272.269 
-0.77 -0.13 -3.74148 5.57184 0.00909859 0.00868785 -0.000130637 0.00890912 1.57534e-07 271.575 
-0.85 -0.11 -3.12742 6.75301 0.00910445 0.008687 -0.000137315 0.00890337 1.57622e-07 271.25 
-0.93 -0.09 -0.915211 6.88528 0.00905003 0.00865915 -0.000191178 0.00887973 1.57057e-07 271.503 
-0.83 -0.11 -3.27714 7.24802 0.00910293 0.00868952 -0.000131368 0.00891107 1.5757e-07 271.573 
-0.91 -0.09 -1.46074 7.26954 0.00904233 0.00864829 -0.000134953 0.00887218 1.56823e-07 271.676 
-0.99 -0.07 -0.63018 6.29703 0.00902307 0.00867808 -0.000206954 0.00885395 1.56621e-07 271.467 
-0.81 -0.11 -3.50035 6.28078 0.00913392 0.00872645 -0.00012296 0.00895344 1.57847e-07 272.385 
-0.89 -0.09 -1.82006 7.64701 0.00903892 0.00862852 -0.00014891 0.00885545 1.56904e-07 271.024 
-0.97 -0.07 -0.603635 6.88132 0.00899679 0.00866537 -0.000208712 0.00884787 1.56369e-07 271.719 
-0.79 -0.11 -3.51076 6.2196 0.00912832 0.00872859 -0.000112292 0.00894741 1.58247e-07 271.515 
-0.87 -0.09 -1.71079 7.10794 0.0090731 0.00864015 -0.000165866 0.00887939 1.57425e-07 270.856 
-0.95 -0.07 -0.582574 6.77244 0.00899135 0.00867671 -0.000181871 0.00884703 1.56237e-07 271.921 
-0.77 -0.11 -4.01086 6.55243 0.00912685 0.008699 -0.000125045 0.00894023 1.57777e-07 272.105 
-0.85 -0.09 -2.1532 6.79487 0.0090595 0.0086575 -0.000157839 0.00886965 1.5727e-07 270.827 
-0.93 -0.07 -1.29215 7.76436 0.00899309 0.00863927 -0.000171458 0.00883986 1.56211e-07 271.746 
-0.75 -0.11 -4.42776 5.85075 0.00911741 0.00872785 -0.000124259 0.0089491 1.58236e-07 271.584 
-0.83 -0.09 -2.76601 7.20651 0.00908933 0.00871151 -0.000146962 0.00891854 1.576e-07 271.748 
-0.91 -0.07 -1.55844 7.27159 0.0090099 0.00862676 -0.000180895 0.00885243 1.56412e-07 271.784 
-0.99 -0.05 0.423427 6.64814 0.00895538 0.00863852 -0.000215705 0.00881522 1.55998e-07 271.358 
-0.81 -0.09 -3.10931 6.99419 0.00908398 0.00870831 -0.000135377 0.00891494 1.57782e-07 271.326 
-0.89 -0.07 -1.41392 7.73549 0.00904174 0.0086487 -0.000175636 0.00887035 1.56732e-07 271.778 
-0.97 -0.05 -0.204877 6.95737 0.00897741 0.00867654 -0.000202696 0.00884682 1.56351e-07 271.717 
-0.79 -0.09 -3.90911 6.55476 0.009096 0.00873753 -0.000113325 0.00891872 1.57915e-07 271.213 
-0.87 -0.07 -1.91297 7.42756 0.00904898 0.00862096 -0.000156349 0.0088674 1.57011e-07 271.203 
-0.95 -0.05 -0.37756 7.31861 0.00897891 0.00866045 -0.000199176 0.0088523 1.56421e-07 271.763 
-0.77 -0.09 -4.08859 6.49226 0.00910719 0.00870693 -0.000118373 0.00892944 1.57956e-07 271.468 
-0.85 -0.07 -2.516 7.44286 0.00905904 0.00866123 -0.000143174 0.00888591 1.57017e-07 271.759 
-0.93 -0.05 -0.722154 8.03991 0.00898908 0.00862456 -0.000182776 0.00882444 1.56106e-07 271.454 
-0.75 -0.09 -4.50499 6.37463 0.00909986 0.00873502 -0.000137322 0.00894015 1.58043e-07 271.645 
-0.83 -0.07 -2.73767 7.83425 0.00904445 0.00868399 -0.000150142 0.0088864 1.56991e-07 271.82 
-0.91 -0.05 -1.30569 8.12065 0.00900521 0.00864917 -0.000180586 0.00885973 1.56302e-07 272.198 
-0.99 -0.03 -0.133674 6.72625 0.00895884 0.00864667 -0.000220597 0.008818 1.56073e-07 271.314 
-0.81 -0.07 -3.39903 7.83091 0.00904039 0.00870403 -0.000140526 0.00888843 1.57231e-07 271.467 
-0.89 -0.05 -1.70465 7.74956 0.0089984 0.00863964 -0.000191053 0.00883909 1.5634e-07 271.499 