ITEM: TIMESTEP
963500
ITEM: NUMBER OF CELLS
5000
ITEM: BOX BOUNDS ss ss pp
-1 1
-0.5 0.5
-0.5 0.5
ITEM: CELLS xc yc f_U[*] f_V[*] f_Tau[1] f_Tau[2] f_Tau[3] f_Press[*] f_Mrho[*] f_Ttra[*] 
-0.99 -0.49 -0.222693 0.302562 0.00899025 0.00875112 -3.06778e-05 0.00888141 1.56671e-07 272.222 
-0.97 -0.49 -0.574475 0.0625288 0.00898755 0.00875091 -3.06455e-05 0.00888089 1.56615e-07 272.303 
-0.95 -0.49 -0.655889 0.0112128 0.00898937 0.00874169 -3.27511e-05 0.0088731 1.56608e-07 272.077 
-0.93 -0.49 -0.879773 0.177746 0.00900034 0.0087532 -2.2537e-05 0.00888427 1.56794e-07 272.097 
-0.91 -0.49 -1.19392 0.0498761 0.00900855 0.00872914 -2.26403e-05 0.00887109 1.56624e-07 271.988 
-0.99 -0.47 -0.208093 0.608625 0.0090147 0.00877167 -1.51158e-05 0.00890174 1.56958e-07 272.346 
-0.89 -0.49 -1.5649 0.235938 0.00902721 0.00874468 -2.63908e-05 0.00888707 1.56842e-07 272.098 
-0.97 -0.47 -0.463399 0.366565 0.00901202 0.00874924 -3.27248e-05 0.0088942 1.5677e-07 272.443 
-0.87 -0.49 -1.73411 0.00329745 0.00904657 0.00876932 -1.28855e-05 0.00890553 1.57121e-07 272.179 
-0.95 -0.47 -0.871276 0.324209 0.0090215 0.00874804 -3.43668e-05 0.00889421 1.5679e-07 272.407 
-0.85 -0.49 -1.94066 0.171039 0.00904471 0.00875158 -5.51568e-06 0.00889508 1.56795e-07 272.425 
-0.93 -0.47 -1.06628 0.249548 0.00902627 0.00874574 -3.91445e-05 0.00889166 1.56789e-07 272.331 
-0.83 -0.49 -1.95275 -0.0855824 0.00905027 0.00876236 -6.85104e-08 0.00891119 1.57087e-07 272.412 
-0.91 -0.47 -1.31393 0.680777 0.00903664 0.00873443 -3.41401e-05 0.00888932 1.56905e-07 272.058 
-0.99 -0.45 -0.124898 0.924924 0.00904315 0.00877223 -2.57618e-05 0.00891672 1.57239e-07 272.318 
-0.81 -0.49 -2.14304 0.270544 0.00905754 0.00876882 1.28555e-05 0.00892061 1.57294e-07 272.341 
-0.89 -0.47 -1.69945 0.407631 0.00903884 0.00874008 -3.30853e-05 0.00888789 1.56926e-07 271.978 
-0.97 -0.45 -0.383381 0.708086 0.00905111 0.00876336 -3.56441e-05 0.00891376 1.5713e-07 272.415 
-0.79 -0.49 -2.46235 0.0605745 0.00906606 0.00877975 1.43771e-05 0.00892989 1.57436e-07 272.379 
-0.87 -0.47 -1.94148 0.225729 0.00904209 0.00874878 -2.28941e-05 0.00890517 1.57067e-07 272.262 
-0.95 -0.45 -0.74605 0.766838 0.00905276 0.00875088 -4.02509e-05 0.00890701 1.56927e-07 272.561 
-0.77 -0.49 -2.52214 0.024904 0.00906984 0.00879317 2.49312e-05 0.00894332 1.57656e-07 272.407 
-0.85 -0.47 -2.0828 0.296734 0.00905469 0.00875234 -1.01398e-05 0.00891346 1.57136e-07 272.396 
-0.93 -0.45 -1.21998 0.445394 0.00906009 0.00873868 -4.51243e-05 0.0089048 1.57132e-07 272.139 
-0.83 -0.47 -2.40202 0.0971187 0.00906086 0.00875201 -8.55409e-06 0.00891737 1.57179e-07 272.44 
-0.91 -0.45 -1.36346 0.844617 0.00905947 0.00874106 -3.72126e-05 0.00890054 1.57213e-07 271.868 
-0.99 -0.43 -0.202556 1.21615 0.00907287 0.00877222 -3.65589e-05 0.00893785 1.57745e-07 272.087 
-0.81 -0.47 -2.5431 0.540865 0.00907128 0.00876194 -3.51062e-07 0.00892834 1.57418e-07 272.362 
-0.89 -0.45 -1.79793 0.745066 0.0090714 0.00872788 -3.8624e-05 0.00889851 1.57143e-07 271.927 
-0.97 -0.43 -0.530553 1.00526 0.00908455 0.00877404 -3.78935e-05 0.00893879 1.57562e-07 272.432 
-0.79 -0.47 -2.86396 0.336874 0.00908442 0.0087694 1.08705e-05 0.00894346 1.577e-07 272.336 
-0.87 -0.45 -2.05645 0.555304 0.00907569 0.00874064 -2.33851e-05 0.00891115 1.57153e-07 272.296 
-0.95 -0.43 -0.742973 0.98149 0.00908636 0.00875428 -4.57415e-05 0.00892455 1.57439e-07 272.21 
-0.77 -0.47 -3.16726 0.141362 0.00909761 0.00879119 1.13729e-05 0.00895427 1.57952e-07 272.229 
-0.85 -0.45 -2.35395 0.39929 0.00908428 0.00874293 -1.99967e-05 0.0089218 1.57233e-07 272.482 
-0.93 -0.43 -0.94221 0.935561 0.00908467 0.0087373 -4.10894e-05 0.00891723 1.57328e-07 272.179 
-0.75 -0.47 -3.28359 0.426373 0.00910345 0.00880103 1.71942e-05 0.00895791 1.57776e-07 272.644 
-0.83 -0.45 -2.61265 0.44886 0.00909812 0.00875287 -1.66989e-05 0.00893321 1.57579e-07 272.233 
-0.91 -0.43 -1.51062 1.04411 0.00908462 0.00873929 -4.29572e-05 0.00891058 1.57284e-07 272.052 
-0.99 -0.41 -0.193275 1.61918 0.00908703 0.00877033 -5.11019e-05 0.00894058 1.57776e-07 272.117 
-0.81 -0.45 -2.88436 0.824621 0.00909627 0.0087471 -1.12111e-05 0.00893407 1.57548e-07 272.313 
-0.89 -0.43 -1.49068 1.10289 0.00907551 0.00872292 -4.13817e-05 0.00890273 1.57217e-07 271.928 
-0.97 -0.41 -0.37337 1.13983 0.00909834 0.00877235 -4.83056e-05 0.00894156 1.5762e-07 272.416 
-0.79 -0.45 -3.04591 0.6353 0.00910237 0.00876347 -1.72931e-06 0.00894338 1.57762e-07 272.226 
-0.87 -0.43 -1.87674 0.778213 0.00908507 0.00873192 -3.97541e-05 0.00891776 1.57281e-07 272.276 
-0.95 -0.41 -0.515622 1.2566 0.00910571 0.00876143 -4.31969e-05 0.00894356 1.57688e-07 272.36 
-0.77 -0.45 -3.47793 0.49595 0.00911147 0.00878522 8.02542e-06 0.00895595 1.57877e-07 272.411 
-0.85 -0.43 -2.16647 0.805985 0.00910349 0.00874301 -3.12139e-05 0.00893042 1.57549e-07 272.199 
-0.93 -0.41 -1.10608 1.4583 0.00909994 0.00872568 -4.35797e-05 0.00892399 1.57464e-07 272.15 
-0.75 -0.45 -3.74098 0.500814 0.0091122 0.00879223 1.32714e-05 0.00895761 1.57995e-07 272.257 
-0.83 -0.43 -2.58397 0.797022 0.0091023 0.00874078 -1.77157e-05 0.00892855 1.57454e-07 272.306 
-0.91 -0.41 -1.2762 1.26537 0.00910538 0.0087395 -3.85822e-05 0.00892815 1.57677e-07 271.909 
-0.99 -0.39 -0.120541 1.83348 0.00908676 0.00877288 -5.30347e-05 0.0089428 1.57844e-07 272.067 
-0.81 -0.43 -3.05488 1.02845 0.00911264 0.00874334 -1.50273e-05 0.00894045 1.57718e-07 272.213 
-0.89 -0.41 -1.6131 1.30372 0.00910755 0.0087342 -4.23998e-05 0.00892567 1.57447e-07 272.23 
-0.97 -0.39 -0.538704 1.40288 0.00909199 0.0087717 -5.29668e-05 0.00893996 1.57761e-07 272.124 
-0.79 -0.43 -3.37698 0.91847 0.00912187 0.00875618 -6.99045e-06 0.00894834 1.57911e-07 272.121 
-0.87 -0.41 -1.99914 1.23348 0.00910474 0.00872358 -4.20442e-05 0.00892513 1.57363e-07 272.359 
-0.95 -0.39 -0.944932 1.57645 0.00908856 0.00875002 -4.76296e-05 0.00892408 1.57409e-07 272.249 
-0.77 -0.43 -3.59508 0.781418 0.00912947 0.00877704 3.36045e-06 0.00896155 1.58077e-07 272.236 
-0.85 -0.41 -2.61237 1.1623 0.00910017 0.00873706 -3.81027e-05 0.00893077 1.57646e-07 272.043 
-0.93 -0.39 -0.789947 1.70817 0.00910205 0.00873118 -4.09897e-05 0.00892393 1.57509e-07 272.071 
-0.83 -0.41 -2.82747 1.19044 0.00911506 0.0087314 -3.14834e-05 0.00892947 1.57559e-07 272.153 
-0.91 -0.39 -1.20941 1.72077 0.00910567 0.00873906 -4.8644e-05 0.00893096 1.57578e-07 272.165 
-0.99 -0.37 0.0963916 2.07497 0.00908284 0.00878294 -6.05456e-05 0.00894571 1.58024e-07 271.846 
-0.81 -0.41 -3.00868 1.35794 0.00912342 0.00873287 -1.98914e-05 0.00893577 1.57709e-07 272.085 
-0.89 -0.39 -1.5171 1.55964 0.00911177 0.00873627 -4.66868e-05 0.00893534 1.57611e-07 272.242 
-0.97 -0.37 -0.348508 1.94361 0.00909287 0.00875857 -6.03353e-05 0.00893882 1.57753e-07 272.103 
-0.79 -0.41 -3.35929 1.1207 0.00913749 0.0087548 -1.74162e-05 0.00895894 1.58082e-07 272.148 
-0.87 -0.39 -1.89365 1.66857 0.00911735 0.00871386 -4.37672e-05 0.00892845 1.57611e-07 272.032 
-0.95 -0.37 -0.704096 1.72517 0.00910979 0.00875003 -5.28003e-05 0.00893804 1.57787e-07 272.02 
-0.77 -0.41 -3.76603 1.19449 0.00914286 0.00876729 -1.62967e-05 0.00896696 1.58238e-07 272.123 
-0.85 -0.39 -2.22672 1.66428 0.00912863 0.00873996 -4.06467e-05 0.00894375 1.57994e-07 271.837 
-0.93 -0.37 -1.2344 1.9173 0.00911416 0.00873177 -5.60126e-05 0.00893499 1.5771e-07 272.06 
-0.75 -0.41 -3.96445 1.00684 0.00916162 0.00879118 -6.8718e-06 0.00898687 1.58487e-07 272.298 
-0.83 -0.39 -2.68349 1.4273 0.00912388 0.00871994 -4.04934e-05 0.00892828 1.57664e-07 271.935 
-0.91 -0.37 -1.43103 1.94603 0.00912851 0.00873582 -5.76364e-05 0.00894136 1.57663e-07 272.336 
-0.99 -0.35 -0.241636 2.13212 0.0091021 0.00877776 -7.73389e-05 0.00895171 1.58164e-07 271.786 
-0.81 -0.39 -2.95271 1.55468 0.00912924 0.0087296 -3.56738e-05 0.0089391 1.5765e-07 272.29 
-0.89 -0.37 -1.75526 1.97965 0.00913403 0.00873225 -4.89301e-05 0.0089405 1.57845e-07 271.995 
-0.97 -0.35 -0.368363 2.39347 0.00910823 0.00875122 -6.73727e-05 0.00894273 1.5785e-07 272.054 
-0.79 -0.39 -3.23274 1.55445 0.00914123 0.0087433 -2.62472e-05 0.00895622 1.58065e-07 272.093 
-0.87 -0.37 -2.23708 2.13417 0.00913293 0.00871426 -4.88081e-05 0.00893234 1.57588e-07 272.19 
-0.95 -0.35 -0.687362 2.02846 0.00911539 0.00874253 -6.4731e-05 0.0089372 1.57757e-07 272.047 
-0.77 -0.39 -3.71306 1.57023 0.00915327 0.00877242 -1.97891e-05 0.00897711 1.58397e-07 272.157 
-0.85 -0.37 -2.57581 1.9918 0.00913417 0.008733 -4.97029e-05 0.00893912 1.57811e-07 272.012 
-0.93 -0.35 -1.10964 2.37579 0.00912278 0.00873675 -6.40844e-05 0.00894031 1.57794e-07 272.078 
-0.83 -0.37 -2.94297 1.77094 0.00914293 0.00871701 -4.00996e-05 0.00893295 1.57787e-07 271.866 
-0.91 -0.35 -1.50589 2.32636 0.00911716 0.00873359 -5.41754e-05 0.00892936 1.5761e-07 272.062 
-0.81 -0.37 -3.25681 1.68704 0.00915164 0.00872672 -3.71766e-05 0.00894893 1.57939e-07 272.089 
-0.89 -0.35 -1.92988 2.47389 0.00911853 0.00872287 -5.5447e-05 0.00892774 1.57542e-07 272.13 
-0.79 -0.37 -3.57577 1.99667 0.00914923 0.00873654 -3.4129e-05 0.00895996 1.58279e-07 271.84 
-0.87 -0.35 -2.29138 2.27689 0.00913419 0.00871821 -5.49567e-05 0.00893834 1.57747e-07 272.099 
-0.77 -0.37 -3.7901 2.0646 0.00915826 0.00876984 -2.8385e-05 0.00897362 1.58283e-07 272.248 
-0.85 -0.35 -2.66574 2.488 0.0091457 0.00872226 -5.14705e-05 0.00893854 1.57913e-07 271.819 
-0.83 -0.35 -3.04363 2.09518 0.00914702 0.00871677 -4.67462e-05 0.00893761 1.57925e-07 271.77 
-0.81 -0.35 -3.42007 2.06239 0.00915229 0.00872568 -4.89325e-05 0.00895185 1.58044e-07 271.998 
-0.79 -0.35 -3.73224 2.27619 0.00917122 0.00873352 -4.27457e-05 0.00896276 1.58347e-07 271.808 
-0.77 -0.35 -3.94735 2.32574 0.00918046 0.00875663 -3.65622e-05 0.00897833 1.58394e-07 272.2 
-0.75 -0.35 -4.19135 2.22804 0.00918656 0.00877777 -2.5437e-05 0.0089931 1.58638e-07 272.229 
-0.75 -0.49 -2.76623 0.209673 0.00908009 0.00879987 2.47509e-05 0.00894249 1.57658e-07 272.378 
-0.75 -0.43 -3.83968 0.732261 0.0091383 0.00879128 -2.23612e-07 0.00897372 1.5821e-07 272.376 
-0.75 -0.39 -4.43043 1.38849 0.00915546 0.00878291 -2.19439e-05 0.00898263 1.58442e-07 272.247 
-0.75 -0.37 -4.07321 1.85765 0.00916068 0.00877664 -2.02956e-05 0.0089787 1.58366e-07 272.259 
-0.77 -0.33 -3.88147 2.60099 0.00916103 0.00874607 -4.47666e-05 0.00896069 1.58326e-07 271.781 
-0.73 -0.49 -3.1213 0.20007 0.00908746 0.0088197 2.49362e-05 0.00896151 1.57999e-07 272.368 
-0.73 -0.47 -3.33406 0.244608 0.00910676 0.00880964 2.48178e-05 0.00897228 1.58176e-07 272.39 
-0.73 -0.45 -3.82974 0.408241 0.00912436 0.00880896 1.45514e-05 0.00897622 1.58336e-07 272.235 
-0.73 -0.43 -4.29755 0.871427 0.00914844 0.00880702 2.98395e-06 0.0089887 1.58449e-07 272.419 
-0.73 -0.41 -4.30158 1.15158 0.00916947 0.00880348 -6.78448e-06 0.00899726 1.58666e-07 272.306 
-0.73 -0.39 -4.50965 1.47546 0.00916377 0.00879596 -7.95387e-06 0.00898797 1.58528e-07 272.261 
-0.73 -0.37 -4.60057 1.75159 0.00916142 0.00878059 -2.29744e-05 0.00897902 1.58458e-07 272.11 
-0.73 -0.35 -4.56349 2.0294 0.00918587 0.00878265 -2.25949e-05 0.00898967 1.58608e-07 272.176 
-0.81 -0.29 -3.29041 3.37342 0.00915389 0.00871171 -6.52527e-05 0.00893936 1.57976e-07 271.736 
-0.89 -0.27 -1.81052 3.81279 0.00912544 0.00870191 -8.99468e-05 0.00893003 1.57676e-07 271.967 
-0.97 -0.25 -0.483812 3.74516 0.00909539 0.00872338 -0.000109679 0.00891922 1.57615e-07 271.744 
-0.83 -0.29 -2.9009 3.46973 0.00914586 0.00872117 -6.87875e-05 0.00894347 1.57851e-07 272.075 
-0.91 -0.27 -1.47982 3.87913 0.00912657 0.00870669 -8.93301e-05 0.00892992 1.57703e-07 271.918 
-0.99 -0.25 -0.201146 3.77193 0.00909415 0.00876067 -0.000117217 0.00893783 1.57967e-07 271.704 
-0.79 -0.29 -3.62925 3.21863 0.00916869 0.00872316 -6.03136e-05 0.00895351 1.58165e-07 271.839 
-0.87 -0.27 -2.36331 3.98116 0.00913126 0.00870802 -7.2925e-05 0.00893746 1.57831e-07 271.927 
-0.95 -0.25 -0.761209 3.76367 0.00910579 0.00871882 -0.000104916 0.00892856 1.57781e-07 271.742 
-0.77 -0.29 -4.02664 3.25048 0.00918186 0.00874228 -5.11862e-05 0.00897288 1.58504e-07 271.846 
-0.85 -0.27 -2.703 3.68833 0.00914245 0.00870873 -7.1546e-05 0.00893605 1.57808e-07 271.924 
-0.93 -0.25 -1.22283 4.08533 0.00910473 0.00870325 -0.000111002 0.00892158 1.57626e-07 271.797 
-0.75 -0.29 -4.51736 3.19439 0.0091858 0.00876466 -5.77872e-05 0.00898856 1.58677e-07 272.024 
-0.83 -0.27 -3.11767 3.68371 0.00915376 0.00872516 -7.0617e-05 0.0089511 1.58042e-07 271.978 
-0.91 -0.25 -1.53542 4.28024 0.00911574 0.00869655 -9.99437e-05 0.00892052 1.57596e-07 271.817 
-0.99 -0.23 -0.0422177 4.04038 0.00906424 0.00874634 -0.000128322 0.00892012 1.57613e-07 271.775 
-0.81 -0.27 -3.5536 3.76904 0.0091572 0.00870951 -7.9048e-05 0.00894535 1.58011e-07 271.858 
-0.89 -0.25 -2.05484 4.18 0.00912773 0.0086945 -8.6782e-05 0.00893137 1.5763e-07 272.088 
-0.97 -0.23 -0.345273 3.99735 0.00908557 0.00872932 -0.0001213 0.00892006 1.57663e-07 271.686 
-0.79 -0.27 -4.07379 3.69267 0.00916847 0.00871243 -7.23777e-05 0.00894565 1.5821e-07 271.524 
-0.87 -0.25 -2.22763 4.3177 0.00913895 0.0087027 -8.63484e-05 0.00894073 1.57966e-07 271.793 
-0.95 -0.23 -0.852631 4.23604 0.00909372 0.0087106 -0.000120038 0.00891552 1.5751e-07 271.812 
-0.77 -0.27 -4.35252 3.61914 0.00917604 0.00874276 -6.25443e-05 0.00897319 1.58556e-07 271.765 
-0.85 -0.25 -2.67217 4.12055 0.009153 0.00871199 -8.81918e-05 0.00894427 1.57905e-07 272.007 
-0.93 -0.23 -1.17419 4.45582 0.00910842 0.00870392 -0.000112181 0.00892204 1.57531e-07 271.975 
-0.83 -0.25 -3.12931 4.0855 0.00916225 0.00871153 -8.2277e-05 0.00893966 1.58124e-07 271.489 
-0.91 -0.23 -1.56311 4.55341 0.00911097 0.00868347 -0.000105974 0.0089211 1.57446e-07 272.092 
-0.99 -0.21 -0.0725804 4.19284 0.00909465 0.00874533 -0.000132902 0.00893217 1.57906e-07 271.637 
-0.81 -0.25 -3.32436 4.23266 0.0091668 0.00872469 -7.62029e-05 0.00895643 1.58268e-07 271.752 
-0.89 -0.23 -1.99505 4.83978 0.00912285 0.00868849 -0.000100641 0.00892345 1.57543e-07 271.997 
-0.97 -0.21 -0.242706 4.36855 0.00910004 0.00871092 -0.000131263 0.00891654 1.57659e-07 271.587 
-0.79 -0.25 -3.82434 4.20745 0.00915395 0.00870189 -7.95256e-05 0.0089383 1.58121e-07 271.453 
-0.87 -0.23 -2.52771 4.48579 0.00913754 0.00870283 -0.000102885 0.00893303 1.578e-07 271.846 
-0.95 -0.21 -0.547103 4.6642 0.00910677 0.00871423 -0.00012282 0.00892467 1.57564e-07 271.997 
-0.77 -0.25 -4.35939 3.85304 0.0091632 0.00873512 -8.01611e-05 0.00895723 1.58349e-07 271.637 
-0.85 -0.23 -2.7658 4.62116 0.00914013 0.00870888 -8.92284e-05 0.00893158 1.57809e-07 271.787 
-0.93 -0.21 -1.15998 4.81784 0.00910672 0.00869269 -0.000121144 0.00891585 1.57619e-07 271.635 
-0.83 -0.23 -3.16086 4.41614 0.00913343 0.0087027 -8.34245e-05 0.00892514 1.5778e-07 271.64 
-0.91 -0.21 -1.46513 4.86568 0.00911681 0.00868177 -0.000113985 0.00891954 1.57567e-07 271.837 
-0.99 -0.19 -0.177196 4.40894 0.00907882 0.00873682 -0.000147709 0.00892163 1.57641e-07 271.773 
-0.81 -0.23 -3.60549 4.43434 0.00914484 0.00871556 -8.30199e-05 0.00894175 1.57981e-07 271.799 
-0.89 -0.21 -1.77758 5.32422 0.00912601 0.0086928 -0.000113396 0.00893145 1.57694e-07 271.981 
-0.97 -0.19 -0.613282 4.71493 0.00908731 0.00870256 -0.000138494 0.00890463 1.57503e-07 271.492 
-0.79 -0.23 -3.7445 4.6756 0.00916527 0.00871353 -8.0724e-05 0.00895086 1.5816e-07 271.768 
-0.87 -0.21 -2.16854 4.93449 0.0091287 0.00868567 -0.000109729 0.00892285 1.57781e-07 271.568 
-0.95 -0.19 -0.830859 5.00541 0.00910303 0.00871193 -0.000130143 0.00891472 1.57553e-07 271.713 
-0.77 -0.23 -4.11621 4.36962 0.00916971 0.00873571 -9.05707e-05 0.00896309 1.58413e-07 271.705 
-0.85 -0.21 -2.78196 5.02053 0.00914006 0.00869799 -9.4558e-05 0.00893293 1.57785e-07 271.868 
-0.93 -0.19 -0.921204 5.29404 0.00910954 0.00868921 -0.000123439 0.00891729 1.57604e-07 271.703 
-0.75 -0.23 -4.57703 4.04386 0.00917884 0.00875009 -8.66495e-05 0.00897593 1.58481e-07 271.977 
-0.83 -0.21 -3.20395 4.74194 0.00915759 0.00870761 -9.31928e-05 0.00894305 1.57902e-07 271.975 
-0.91 -0.19 -1.41514 5.29474 0.00910942 0.00867291 -0.000123998 0.00890642 1.57426e-07 271.68 
-0.81 -0.21 -3.46183 4.74338 0.00915895 0.00871329 -8.51173e-05 0.00895258 1.58233e-07 271.694 
-0.89 -0.19 -1.90029 5.63587 0.00911654 0.00868961 -0.000114988 0.00891999 1.57532e-07 271.911 
-0.79 -0.21 -3.8495 5.05161 0.00915222 0.00871396 -9.23093e-05 0.00894807 1.58197e-07 271.619 
-0.87 -0.19 -2.35585 5.34981 0.00911528 0.00868254 -0.00010771 0.00891429 1.57587e-07 271.641 
-0.77 -0.21 -4.28914 4.78042 0.00916436 0.00874255 -9.42119e-05 0.00896268 1.58393e-07 271.727 
-0.85 -0.19 -2.59124 5.39294 0.00912123 0.00868722 -0.00011333 0.00892053 1.57719e-07 271.605 
-0.75 -0.21 -4.668 4.40834 0.00916736 0.0087401 -9.55703e-05 0.00896674 1.5842e-07 271.804 
-0.83 -0.19 -2.90255 5.17008 0.00912143 0.00870263 -0.000103656 0.00892825 1.57759e-07 271.77 
-0.81 -0.19 -3.3044 5.18878 0.00914463 0.00870178 -9.92161e-05 0.00893522 1.57928e-07 271.692 
-0.79 -0.19 -3.84194 5.27854 0.00916464 0.0087312 -9.64388e-05 0.0089639 1.58346e-07 271.845 
-0.77 -0.19 -4.07675 5.30378 0.00917121 0.00873916 -0.00010287 0.00896854 1.58485e-07 271.747 
-0.99 -0.33 -0.101594 2.47901 0.00909651 0.00877238 -8.35506e-05 0.00894667 1.57969e-07 271.97 
-0.97 -0.33 -0.435682 2.44402 0.0091117 0.00875029 -8.15258e-05 0.00894319 1.5786e-07 272.051 
-0.91 -0.33 -1.62991 2.8341 0.00914666 0.0087292 -6.31152e-05 0.00894051 1.5784e-07 272.005 
-0.99 -0.31 -0.172041 2.78189 0.00908393 0.00876122 -9.47746e-05 0.00893418 1.57761e-07 271.948 
-0.97 -0.31 -0.342139 2.74702 0.00909691 0.00874816 -8.75331e-05 0.0089341 1.57924e-07 271.664 
-0.87 -0.33 -2.28082 2.73041 0.00914832 0.00872468 -6.42787e-05 0.00894507 1.57937e-07 271.975 
-0.95 -0.31 -0.932153 3.09449 0.00910604 0.00872826 -8.74786e-05 0.00892978 1.57637e-07 272.028 
-0.85 -0.33 -2.37242 2.6257 0.00914393 0.00871124 -5.58923e-05 0.00893918 1.5771e-07 272.187 
-0.93 -0.31 -1.23477 3.11418 0.00912367 0.00872838 -8.43571e-05 0.0089386 1.57817e-07 271.985 
-0.91 -0.31 -1.49383 3.04764 0.00913768 0.00871518 -7.00875e-05 0.00894432 1.57736e-07 272.299 
-0.99 -0.29 -0.150461 3.04112 0.0090804 0.00876473 -0.000103316 0.00893778 1.57856e-07 271.894 
-0.81 -0.33 -3.45493 2.48708 0.00916021 0.00872361 -4.94957e-05 0.008957 1.58155e-07 271.962 
-0.89 -0.31 -1.72246 3.08199 0.00914323 0.00871989 -5.90648e-05 0.00894664 1.57873e-07 272.134 
-0.97 -0.29 -0.571816 3.14877 0.0090895 0.00873648 -0.000102296 0.00892498 1.57605e-07 271.936 
-0.87 -0.31 -2.11105 3.06317 0.00914848 0.00872617 -6.31709e-05 0.00894402 1.57967e-07 271.892 
-0.95 -0.29 -0.739245 3.37679 0.0091034 0.00872433 -9.70793e-05 0.00892848 1.57556e-07 272.129 
-0.85 -0.31 -2.58478 2.82504 0.0091498 0.00870436 -5.99868e-05 0.00893952 1.5786e-07 271.94 
-0.93 -0.29 -1.11612 3.27294 0.00910436 0.00872068 -8.77713e-05 0.00892161 1.57491e-07 272.03 
-0.83 -0.31 -2.81263 3.19981 0.00915497 0.00872153 -5.41345e-05 0.00895131 1.57976e-07 272.098 
-0.91 -0.29 -1.32576 3.48152 0.00910094 0.00870193 -8.11251e-05 0.00891117 1.5738e-07 271.905 
-0.99 -0.27 -0.122987 3.39888 0.00909611 0.00876288 -0.000111912 0.00894548 1.58079e-07 271.743 
-0.81 -0.31 -3.20411 2.95147 0.00915587 0.008715 -5.77676e-05 0.00895347 1.58102e-07 271.947 
-0.89 -0.29 -1.71122 3.44752 0.0091189 0.0087143 -7.80431e-05 0.00892857 1.57626e-07 272.01 
-0.97 -0.27 -0.533292 3.44087 0.00909589 0.00873225 -0.000109515 0.00892994 1.57708e-07 271.909 
-0.79 -0.31 -3.69562 2.74534 0.00915953 0.00872978 -5.11375e-05 0.00895528 1.58267e-07 271.718 
-0.87 -0.29 -2.13807 3.4878 0.00913251 0.00871827 -5.96938e-05 0.00893633 1.5782e-07 271.912 
-0.95 -0.27 -0.735919 3.59788 0.0090955 0.00871548 -0.000103237 0.00892108 1.57494e-07 272.01 
-0.77 -0.31 -4.1858 2.87891 0.00916272 0.00874071 -4.97424e-05 0.00895291 1.58259e-07 271.66 
-0.85 -0.29 -2.64993 3.29537 0.00914017 0.00870511 -6.39557e-05 0.00893168 1.57801e-07 271.803 
-0.93 -0.27 -0.990084 3.62321 0.00910829 0.00870883 -9.30813e-05 0.00891811 1.57319e-07 272.221 
-0.95 -0.33 -0.697597 2.60737 0.00911943 0.0087295 -7.2606e-05 0.00893644 1.57819e-07 271.916 
-0.93 -0.33 -1.13721 2.71159 0.0091328 0.00873493 -6.44029e-05 0.00894012 1.57841e-07 271.991 
-0.89 -0.33 -2.11044 2.73882 0.00915175 0.00871961 -5.54598e-05 0.00894233 1.57824e-07 272.088 
-0.83 -0.33 -2.8553 2.68959 0.00914972 0.00871435 -5.66046e-05 0.00894754 1.57961e-07 272.01 
-0.75 -0.31 -4.43397 2.85705 0.00917091 0.00876068 -4.75428e-05 0.00897973 1.58433e-07 272.174 
-0.75 -0.27 -4.5132 3.63385 0.00919176 0.00876308 -6.54721e-05 0.00898676 1.58665e-07 271.99 
-0.75 -0.25 -4.66496 3.75443 0.00917613 0.00876318 -7.08505e-05 0.00897632 1.58531e-07 271.904 
-0.75 -0.19 -4.44382 4.74843 0.0091677 0.00873613 -9.66424e-05 0.00896435 1.58477e-07 271.634 
-0.79 -0.33 -3.71042 2.32523 0.00915645 0.00873451 -4.98502e-05 0.00895829 1.58277e-07 271.792 
-0.75 -0.33 -4.3199 2.51744 0.00916875 0.00876548 -3.41909e-05 0.00897596 1.58528e-07 271.898 
-0.81 -0.17 -3.61155 5.64033 0.00912736 0.00869108 -0.000113416 0.00891965 1.57703e-07 271.606 
-0.79 -0.17 -3.90502 5.75002 0.00914136 0.00873591 -0.000113139 0.00895504 1.58162e-07 271.891 
-0.75 -0.17 -4.43886 5.36599 0.00916276 0.00873844 -0.000102897 0.00896136 1.58272e-07 271.895 
-0.73 -0.31 -4.87224 2.89397 0.00918724 0.00877825 -4.76458e-05 0.00899308 1.58743e-07 272.048 
-0.73 -0.29 -4.71956 3.19729 0.00918702 0.00877077 -5.44794e-05 0.00899058 1.58774e-07 271.918 
-0.73 -0.27 -4.95878 3.38132 0.0092016 0.00877892 -6.86118e-05 0.00899957 1.58902e-07 271.971 
-0.73 -0.25 -4.74824 3.78364 0.00918255 0.00877188 -6.73114e-05 0.0089856 1.58786e-07 271.747 
-0.73 -0.23 -4.95319 4.0902 0.00918883 0.00877192 -7.48773e-05 0.00898777 1.58813e-07 271.767 
-0.73 -0.21 -4.88439 4.31224 0.00918357 0.00876849 -9.4305e-05 0.00898376 1.58618e-07 271.979 
-0.73 -0.19 -4.89618 4.73314 0.00916525 0.00877515 -9.87256e-05 0.00897749 1.58614e-07 271.796 
-0.79 -0.05 -3.24384 7.66242 0.00905575 0.00871075 -0.000152177 0.00889725 1.57459e-07 271.342 
-0.87 -0.03 -2.21059 8.34989 0.00900584 0.00862533 -0.000178063 0.00883643 1.56379e-07 271.35 
-0.83 -0.05 -2.69622 7.94923 0.00903768 0.00867353 -0.000153741 0.00887835 1.57016e-07 271.53 
-0.91 -0.03 -1.64989 8.22481 0.00899347 0.00862357 -0.000190735 0.00883195 1.56234e-07 271.464 
-0.81 -0.05 -2.84387 7.68483 0.00905129 0.00869962 -0.000144199 0.00889396 1.57338e-07 271.451 
-0.89 -0.03 -1.84107 8.42228 0.00899857 0.00862929 -0.000179045 0.00883472 1.56311e-07 271.414 
-0.77 -0.05 -3.61109 7.27672 0.00906836 0.00872959 -0.000153491 0.00891481 1.57654e-07 271.543 
-0.85 -0.03 -2.48527 8.17942 0.00900892 0.00864803 -0.000175567 0.00885212 1.56622e-07 271.41 
-0.75 -0.05 -3.84311 7.06606 0.00907604 0.00875328 -0.000159923 0.00892296 1.57753e-07 271.619 
-0.83 -0.03 -2.68151 8.2932 0.00902324 0.00866635 -0.000162857 0.00886563 1.56905e-07 271.333 
-0.81 -0.03 -3.16773 7.95571 0.00903235 0.00869445 -0.000158105 0.00887914 1.57119e-07 271.376 
-0.79 -0.03 -3.1977 8.05062 0.009049 0.00871484 -0.000157292 0.00889669 1.57459e-07 271.326 
-0.77 -0.03 -3.56631 7.53433 0.00906088 0.00873721 -0.000162211 0.00890906 1.57614e-07 271.437 
-0.95 -0.17 -0.799697 5.13295 0.00907649 0.00869282 -0.000144318 0.00889589 1.57339e-07 271.509 
-0.99 -0.15 -0.160648 4.90828 0.00903171 0.00870592 -0.00017733 0.00889068 1.57197e-07 271.595 
-0.89 -0.17 -1.96686 5.87264 0.00910804 0.00867374 -0.000121196 0.008908 1.57361e-07 271.839 
-0.97 -0.15 -0.369465 5.5364 0.00905381 0.00870209 -0.000165327 0.00889341 1.57257e-07 271.574 
-0.95 -0.15 -0.954861 5.66748 0.00906762 0.00867756 -0.000155359 0.00888465 1.57148e-07 271.495 
-0.93 -0.15 -1.32079 5.91126 0.00907711 0.00867134 -0.000140403 0.00888941 1.57314e-07 271.354 
-0.83 -0.17 -3.09394 5.58377 0.00912897 0.00870986 -0.000107855 0.00893268 1.57803e-07 271.829 
-0.91 -0.15 -1.4953 6.20118 0.00909274 0.00867393 -0.000137193 0.00889993 1.57289e-07 271.717 
-0.99 -0.13 -0.236658 5.30579 0.00904723 0.00870794 -0.000189603 0.00889185 1.57233e-07 271.567 
-0.89 -0.15 -1.72843 6.29535 0.00909482 0.00866241 -0.000129796 0.008894 1.57256e-07 271.595 
-0.97 -0.13 -0.529964 5.92512 0.00905448 0.00868132 -0.000174561 0.0088848 1.57188e-07 271.431 
-0.87 -0.15 -2.41369 6.06898 0.00909843 0.00868331 -0.00012313 0.00891075 1.57391e-07 271.872 
-0.95 -0.13 -0.920872 6.10661 0.00906418 0.00866566 -0.000165548 0.00888058 1.57143e-07 271.379 
-0.77 -0.17 -4.18086 5.29212 0.00915536 0.0087302 -0.000107026 0.00895836 1.58251e-07 271.84 
-0.85 -0.15 -2.69535 6.23094 0.00910863 0.00867896 -0.000115231 0.00891124 1.57555e-07 271.604 
-0.93 -0.13 -1.15284 6.14276 0.00907768 0.00866926 -0.000158029 0.00889217 1.57129e-07 271.758 
-0.83 -0.15 -2.99624 5.94258 0.00912254 0.00870147 -0.000120062 0.00892637 1.57748e-07 271.732 
-0.91 -0.13 -1.70642 6.52216 0.00907929 0.0086582 -0.000148852 0.00889137 1.57281e-07 271.471 
-0.99 -0.11 -0.0974441 5.58 0.00904004 0.00869535 -0.000187311 0.00888143 1.56971e-07 271.703 
-0.81 -0.15 -3.32904 6.13775 0.0091316 0.00870743 -0.000118901 0.00893523 1.57851e-07 271.824 
-0.89 -0.13 -1.97446 6.60966 0.00909089 0.00866068 -0.000134319 0.00889272 1.57359e-07 271.378 
-0.97 -0.11 -0.513084 6.2846 0.00903405 0.00867016 -0.000183743 0.00887327 1.56885e-07 271.601 
-0.79 -0.15 -3.86027 5.87651 0.00913241 0.00872306 -0.000122499 0.00894798 1.58129e-07 271.734 
-0.87 -0.13 -2.29456 6.63308 0.00910162 0.00866958 -0.000129967 0.00890555 1.575e-07 271.525 
-0.95 -0.11 -0.803248 6.41941 0.00904309 0.00866032 -0.00017462 0.00887114 1.57023e-07 271.297 
-0.77 -0.15 -4.11641 5.70185 0.00913509 0.00872769 -0.000112899 0.00894718 1.58275e-07 271.458 
-0.85 -0.13 -2.59812 6.32103 0.00911737 0.00868328 -0.000127102 0.00891103 1.57541e-07 271.623 
-0.93 -0.11 -1.23039 6.63345 0.00905629 0.0086594 -0.000167676 0.00887489 1.57125e-07 271.237 
-0.75 -0.15 -4.4622 5.58484 0.00914284 0.00873831 -0.000110882 0.00895562 1.58359e-07 271.571 
-0.83 -0.13 -2.94937 6.44886 0.00912417 0.00869728 -0.000127699 0.00892375 1.575e-07 272.081 
-0.91 -0.11 -1.48777 6.86101 0.00906034 0.00864561 -0.000157066 0.0088731 1.57055e-07 271.302 
-0.99 -0.09 -0.116983 5.83751 0.00899834 0.00868256 -0.000201761 0.00885344 1.5662e-07 271.453 
-0.81 -0.13 -3.48008 6.43409 0.00911926 0.00870746 -0.000121457 0.00892903 1.57938e-07 271.487 
-0.89 -0.11 -1.80354 6.93646 0.00907652 0.00865445 -0.000147022 0.00888389 1.57381e-07 271.07 
-0.97 -0.09 -0.384364 6.75039 0.00902489 0.00866244 -0.000188988 0.00886497 1.5684e-07 271.425 
-0.79 -0.13 -3.58297 6.41182 0.00912505 0.00871908 -0.000123424 0.00893822 1.57938e-07 271.765 
-0.87 -0.11 -2.19882 7.02922 0.0090909 0.00866373 -0.000144958 0.00889981 1.57452e-07 271.433 
-0.95 -0.09 -0.757863 6.76143 0.00903662 0.0086567 -0.000180686 0.0088703 1.56922e-07 271.447 
-0.77 -0.13 -4.03062 6.00668 0.00912563 0.00872169 -0.000119119 0.00893582 1.57999e-07 271.588 
-0.85 -0.11 -2.60778 6.7394 0.00909596 0.00868135 -0.000133921 0.00890129 1.57561e-07 271.29 
-0.93 -0.09 -1.05736 6.82203 0.00903976 0.00864766 -0.000177701 0.00886519 1.57128e-07 270.935 
-0.83 -0.11 -3.04608 7.00192 0.00909501 0.0086863 -0.000127535 0.00890727 1.57528e-07 271.53 
-0.91 -0.09 -1.31285 7.24191 0.00904463 0.00863576 -0.000160071 0.00886158 1.56924e-07 271.176 
-0.99 -0.07 -0.27289 6.22212 0.00900387 0.00867334 -0.00020877 0.00885534 1.5659e-07 271.564 
-0.81 -0.11 -3.39188 6.58265 0.00910862 0.00871182 -0.000127616 0.00892335 1.57581e-07 271.929 
-0.89 -0.09 -1.87053 7.34347 0.00904923 0.00864999 -0.000162609 0.00887178 1.57115e-07 271.159 
-0.97 -0.07 -0.463955 6.93024 0.00899549 0.00864945 -0.000205849 0.0088428 1.5642e-07 271.473 
-0.79 -0.11 -3.55556 6.71791 0.0091139 0.00871441 -0.000127574 0.00893069 1.5798e-07 271.464 
-0.87 -0.09 -2.17247 7.37298 0.00906307 0.00865308 -0.000156251 0.00888139 1.57327e-07 271.087 
-0.95 -0.07 -0.680026 7.06218 0.00899903 0.00864982 -0.000189953 0.00884454 1.56432e-07 271.506 
-0.77 -0.11 -3.97956 6.28889 0.00912608 0.00871758 -0.000131176 0.00893634 1.57992e-07 271.616 
-0.85 -0.09 -2.55508 7.16651 0.00907275 0.00867241 -0.00014451 0.00888688 1.5731e-07 271.283 
-0.93 -0.07 -1.08062 7.26815 0.00900819 0.0086318 -0.000180499 0.00884533 1.56691e-07 271.081 
-0.75 -0.11 -4.42659 6.06511 0.00914117 0.00875338 -0.000131172 0.00895697 1.58309e-07 271.697 
-0.83 -0.09 -2.85604 7.21477 0.00908771 0.0086815 -0.000139194 0.00890319 1.57408e-07 271.612 
-0.91 -0.07 -1.53368 7.59414 0.00902616 0.00863127 -0.00017416 0.00885127 1.56669e-07 271.302 
-0.99 -0.05 -0.0500814 6.60627 0.00897818 0.00866241 -0.000217169 0.00883389 1.56281e-07 271.44 
-0.81 -0.09 -3.23135 7.04997 0.00909729 0.0087146 -0.000137678 0.00891916 1.57751e-07 271.508 
-0.89 -0.07 -1.81986 7.69932 0.00904109 0.00865031 -0.000174588 0.00886753 1.56976e-07 271.269 
-0.97 -0.05 -0.577631 7.1071 0.00899749 0.00864375 -0.000208224 0.00884165 1.56417e-07 271.444 
-0.79 -0.09 -3.60874 6.85671 0.00910203 0.00871753 -0.000130955 0.00892686 1.57827e-07 271.611 
-0.87 -0.07 -2.22396 7.77622 0.00903978 0.0086384 -0.000158181 0.00886039 1.56788e-07 271.375 
-0.95 -0.05 -0.706909 7.43093 0.00900472 0.00863707 -0.000196891 0.00883989 1.56362e-07 271.485 
-0.77 -0.09 -3.82596 6.87706 0.00909871 0.00871869 -0.000131953 0.00892819 1.57884e-07 271.554 
-0.85 -0.07 -2.54562 7.47667 0.00904706 0.00866052 -0.000153979 0.00887504 1.56983e-07 271.487 
-0.93 -0.05 -1.11794 7.72373 0.00900406 0.00862405 -0.000184224 0.00883616 1.56425e-07 271.262 
-0.75 -0.09 -4.17192 6.44151 0.0090917 0.00874647 -0.000138724 0.00893572 1.57943e-07 271.681 
-0.83 -0.07 -2.89463 7.70142 0.00905289 0.00868554 -0.000145313 0.00888317 1.57119e-07 271.5 
-0.91 -0.05 -1.42567 7.96597 0.00900833 0.00863223 -0.000183289 0.00884092 1.56492e-07 271.292 
-0.99 -0.03 -0.203994 6.95961 0.00894939 0.00865354 -0.000230621 0.00881467 1.55902e-07 271.51 
-0.81 -0.07 -3.19599 7.51444 0.0090541 0.00870208 -0.000147854 0.00889744 1.5736e-07 271.519 
-0.89 -0.05 -1.75883 8.07413 0.00900717 0.00863557 -0.000175511 0.00884439 1.56601e-07 271.209 
-0.97 -0.03 -0.478658 7.49557 0.00895555 0.00862702 -0.000214637 0.00881227 1.56043e-07 271.19 