ITEM: TIMESTEP
823000
ITEM: NUMBER OF CELLS
5000
ITEM: BOX BOUNDS ss ss pp
-1 1
-0.5 0.5
-0.5 0.5
ITEM: CELLS xc yc f_U[*] f_V[*] f_Tau[1] f_Tau[2] f_Tau[3] f_Press[*] f_Mrho[*] f_Ttra[*] 
-0.99 -0.49 -0.0294322 0.0591972 0.00896186 0.00874617 -1.62053e-05 0.00887198 1.56752e-07 271.793 
-0.97 -0.49 -0.0749839 0.120136 0.00894766 0.00877699 -2.05412e-05 0.00887263 1.56547e-07 272.168 
-0.95 -0.49 -0.517951 -0.0796148 0.00896765 0.00875366 -3.75256e-05 0.00888123 1.57182e-07 271.332 
-0.93 -0.49 -0.754556 0.423808 0.00898154 0.00875782 -4.10152e-05 0.00889349 1.56983e-07 272.051 
-0.91 -0.49 -1.1403 0.0105299 0.00898311 0.00870921 -2.28506e-05 0.00886503 1.5689e-07 271.34 
-0.99 -0.47 -0.0382413 0.120277 0.0090125 0.00875616 -1.92373e-05 0.00889232 1.57104e-07 271.805 
-0.89 -0.49 -1.6773 0.28474 0.00903298 0.00872341 -2.39273e-05 0.00890898 1.56937e-07 272.604 
-0.97 -0.47 -0.0446227 0.656339 0.00901107 0.00878568 -3.57628e-05 0.00890851 1.57036e-07 272.418 
-0.87 -0.49 -1.92984 -0.0807531 0.00905389 0.00880638 -7.7956e-06 0.00892232 1.57567e-07 271.921 
-0.95 -0.47 -0.76316 0.860021 0.00902053 0.00877054 -3.91336e-05 0.00891196 1.57474e-07 271.766 
-0.85 -0.49 -1.83656 0.382508 0.00907405 0.00882061 -8.80294e-07 0.00894018 1.57842e-07 271.99 
-0.93 -0.47 -1.65867 0.457009 0.00902728 0.00873715 -3.20271e-05 0.00889722 1.56867e-07 272.367 
-0.83 -0.49 -1.87356 0.100429 0.00908846 0.00881288 1.11269e-05 0.00896076 1.58023e-07 272.304 
-0.91 -0.47 -1.4142 0.158842 0.00901792 0.00873382 -3.25775e-05 0.00890309 1.57204e-07 271.962 
-0.99 -0.45 -0.260637 0.384719 0.00904049 0.00876903 -3.79165e-05 0.00892111 1.57541e-07 271.928 
-0.81 -0.49 -2.15506 0.215467 0.00907268 0.00878053 2.46306e-06 0.00892497 1.57257e-07 272.537 
-0.89 -0.47 -1.86564 0.578685 0.00899488 0.00871876 -5.96461e-05 0.00887677 1.56867e-07 271.74 
-0.97 -0.45 -0.688338 0.665402 0.00906095 0.0087829 -3.84177e-05 0.00893945 1.57422e-07 272.693 
-0.79 -0.49 -2.44333 -0.104192 0.00907159 0.00875457 2.08216e-05 0.00892702 1.57789e-07 271.682 
-0.87 -0.47 -2.18811 0.282428 0.00902317 0.0087727 -3.79906e-05 0.00892469 1.5756e-07 272.005 
-0.95 -0.45 -0.456406 1.48753 0.00905104 0.00878207 -4.49056e-05 0.00893623 1.57377e-07 272.673 
-0.77 -0.49 -2.43651 0.0316979 0.00907494 0.00879114 4.02309e-05 0.00893718 1.57403e-07 272.658 
-0.85 -0.47 -2.44933 0.312622 0.00905978 0.00881624 -1.93868e-05 0.00895595 1.57804e-07 272.536 
-0.93 -0.45 -0.756109 0.821839 0.00902864 0.00868887 -3.94054e-05 0.00889038 1.5698e-07 271.961 
-0.83 -0.47 -2.73247 0.222575 0.00906447 0.00879517 4.52155e-07 0.00894231 1.57649e-07 272.389 
-0.91 -0.45 -1.517 0.655412 0.00905345 0.00877098 -2.18755e-05 0.00893464 1.57934e-07 271.663 
-0.99 -0.43 -0.514913 1.08994 0.00910659 0.00878388 -4.33133e-05 0.00896755 1.58117e-07 272.348 
-0.81 -0.47 -2.61065 0.282999 0.00907754 0.00879097 9.67696e-06 0.00894092 1.57637e-07 272.367 
-0.89 -0.45 -1.83712 0.706194 0.00905292 0.0087276 -5.55248e-05 0.00890701 1.5717e-07 272.14 
-0.97 -0.43 -0.714351 0.703639 0.00911361 0.00876203 -3.2427e-05 0.00895499 1.57849e-07 272.43 
-0.79 -0.47 -2.89884 0.395699 0.00908671 0.00871921 2.33066e-05 0.00891271 1.57297e-07 272.094 
-0.87 -0.45 -1.91291 0.588516 0.00904622 0.0087627 -4.22764e-05 0.00891248 1.57334e-07 272.024 
-0.95 -0.43 -0.754179 1.14256 0.00912079 0.00879359 -2.92608e-05 0.00896128 1.58064e-07 272.25 
-0.77 -0.47 -2.90623 -0.257461 0.00909136 0.00880968 2.57024e-05 0.00895067 1.57799e-07 272.384 
-0.85 -0.45 -2.41934 0.294612 0.0090341 0.00878354 -3.01106e-05 0.00892692 1.57556e-07 272.081 
-0.93 -0.43 -0.918986 1.44354 0.00912494 0.00871233 -4.70947e-05 0.00893256 1.57526e-07 272.304 
-0.75 -0.47 -2.93089 0.354922 0.00910097 0.00880433 2.23512e-05 0.00895714 1.57664e-07 272.815 
-0.83 -0.45 -2.42984 0.599589 0.00906178 0.00877497 -2.76782e-05 0.00892601 1.57499e-07 272.151 
-0.91 -0.43 -1.56201 1.25288 0.00911893 0.0087403 -4.00277e-05 0.00892561 1.57421e-07 272.273 
-0.99 -0.41 -0.119379 1.75111 0.00911028 0.00878174 -5.55353e-05 0.00897297 1.58291e-07 272.214 
-0.81 -0.45 -2.5595 0.499983 0.00908782 0.00876628 -9.80239e-06 0.00894005 1.57375e-07 272.793 
-0.89 -0.43 -1.81722 0.939815 0.0091172 0.0087458 -2.77596e-05 0.00893104 1.57603e-07 272.125 
-0.97 -0.41 -0.749941 1.07029 0.00911868 0.00876377 -5.95559e-05 0.00894561 1.57853e-07 272.137 
-0.79 -0.45 -2.83091 0.734586 0.00909886 0.00873108 1.59873e-05 0.00891746 1.57875e-07 271.243 
-0.87 -0.43 -1.86277 0.588818 0.00910593 0.00876031 -5.05948e-05 0.0089372 1.57697e-07 272.15 
-0.95 -0.41 -1.17935 1.25508 0.00912764 0.00877505 -2.93577e-05 0.00894738 1.57909e-07 272.095 
-0.77 -0.45 -3.44195 0.0712526 0.00912617 0.00880162 8.66318e-06 0.00895482 1.57932e-07 272.281 
-0.85 -0.43 -2.08822 0.944243 0.00910447 0.00878444 -2.99136e-05 0.0089536 1.57838e-07 272.406 
-0.93 -0.41 -1.60237 2.05814 0.00912073 0.00871356 -2.6808e-05 0.00893518 1.57582e-07 272.287 
-0.75 -0.45 -3.63913 0.542322 0.00912828 0.00881384 8.571e-06 0.00897693 1.58362e-07 272.212 
-0.83 -0.43 -2.78319 0.944398 0.00908878 0.00877241 -3.63823e-05 0.0089484 1.57603e-07 272.654 
-0.91 -0.41 -1.17646 1.37009 0.00912734 0.00874821 -4.02831e-05 0.00894354 1.57698e-07 272.342 
-0.99 -0.39 -0.403489 2.15024 0.00909688 0.00877005 -4.81804e-05 0.00895176 1.57873e-07 272.289 
-0.81 -0.43 -3.13344 0.318934 0.00908818 0.00873049 -1.16468e-05 0.00894911 1.57727e-07 272.46 
-0.89 -0.41 -1.48514 1.23292 0.00912383 0.0087597 -4.03212e-05 0.00894778 1.57602e-07 272.637 
-0.97 -0.39 -0.980894 1.6515 0.00908995 0.00877889 -3.85481e-05 0.00894655 1.57875e-07 272.128 
-0.79 -0.43 -2.73176 0.750251 0.00910704 0.00875017 -1.26981e-05 0.00894839 1.57894e-07 272.15 
-0.87 -0.41 -2.20796 0.814991 0.00911375 0.00874964 -2.0126e-05 0.00894115 1.57548e-07 272.529 
-0.95 -0.39 -1.2863 1.45952 0.009083 0.00874097 -4.39276e-05 0.00891394 1.57212e-07 272.279 
-0.77 -0.43 -3.0201 0.833144 0.00913169 0.00877775 -6.1945e-06 0.0089709 1.57856e-07 272.901 
-0.85 -0.41 -2.22262 1.06713 0.00912905 0.00878698 -3.99178e-05 0.00896562 1.58139e-07 272.253 
-0.93 -0.39 -0.544673 1.82244 0.0091126 0.00873782 -2.97373e-05 0.00892262 1.57431e-07 272.165 
-0.83 -0.41 -2.16336 1.44179 0.00913548 0.00875846 -2.2453e-05 0.00896065 1.57766e-07 272.745 
-0.91 -0.39 -1.05765 1.78367 0.00909952 0.00873679 -5.1404e-05 0.00892499 1.57414e-07 272.267 
-0.99 -0.37 -0.0598374 2.70886 0.00912399 0.00877469 -4.88812e-05 0.00898887 1.58946e-07 271.573 
-0.81 -0.41 -2.45866 0.857694 0.00912116 0.00872828 -1.43948e-05 0.00895075 1.57986e-07 272.063 
-0.89 -0.39 -1.13744 1.30108 0.00910353 0.0087565 -3.15965e-05 0.00895059 1.57798e-07 272.383 
-0.97 -0.37 -0.369517 2.09601 0.0091236 0.00877124 -4.22028e-05 0.00897231 1.58313e-07 272.155 
-0.79 -0.41 -3.18699 0.468917 0.00914531 0.00876393 -2.9911e-05 0.00896217 1.58042e-07 272.315 
-0.87 -0.39 -1.17613 1.12794 0.00912526 0.00877374 -5.65185e-05 0.00896504 1.57756e-07 272.895 
-0.95 -0.37 -0.672651 1.69266 0.00912931 0.00873604 -4.71139e-05 0.00892665 1.57602e-07 271.993 
-0.77 -0.41 -4.05273 1.09953 0.00914582 0.00875536 -1.97864e-05 0.00895783 1.5809e-07 272.1 
-0.85 -0.39 -1.95263 1.32245 0.00914933 0.00877537 -5.09785e-05 0.00898387 1.58709e-07 271.826 
-0.93 -0.37 -1.33952 1.53404 0.00914129 0.00873782 -5.94621e-05 0.00895054 1.5818e-07 271.725 
-0.75 -0.41 -4.08638 1.67428 0.00917857 0.0088008 -6.49844e-06 0.00900559 1.58679e-07 272.535 
-0.83 -0.39 -2.24972 1.71019 0.00914813 0.00872862 -4.09527e-05 0.00896241 1.58276e-07 271.919 
-0.91 -0.37 -1.17862 1.96083 0.00915644 0.00874583 -3.92341e-05 0.00896672 1.58188e-07 272.202 
-0.99 -0.35 -0.0655493 2.78408 0.00906105 0.00875718 -6.84927e-05 0.0089416 1.58296e-07 271.253 
-0.81 -0.39 -2.41875 1.23338 0.00917866 0.00874716 -1.79068e-05 0.00899333 1.58165e-07 273.048 
-0.89 -0.37 -1.3837 1.63782 0.00916443 0.00873925 -4.00861e-05 0.00896135 1.5808e-07 272.224 
-0.97 -0.35 -0.183695 2.40403 0.00908935 0.00876032 -6.15748e-05 0.00894048 1.58217e-07 271.355 
-0.79 -0.39 -3.39919 1.68059 0.00916304 0.00875895 -2.83467e-05 0.00898303 1.58217e-07 272.646 
-0.87 -0.37 -1.93203 1.81029 0.00917684 0.00878493 -5.29035e-05 0.00897732 1.58212e-07 272.481 
-0.95 -0.35 -0.446337 2.20807 0.00910996 0.00874246 -6.19649e-05 0.00892603 1.57908e-07 271.447 
-0.77 -0.39 -4.20592 1.40611 0.00916712 0.00875773 -3.49516e-05 0.00898883 1.58839e-07 271.755 
-0.85 -0.37 -2.28543 1.59454 0.00914314 0.00877257 -5.04651e-05 0.00896533 1.5849e-07 271.641 
-0.93 -0.35 -1.01991 2.06345 0.00912123 0.0087202 -6.13594e-05 0.00892995 1.58021e-07 271.372 
-0.83 -0.37 -2.56356 2.11086 0.00914288 0.00871851 -4.02895e-05 0.00894224 1.5786e-07 272.022 
-0.91 -0.35 -1.24932 1.83836 0.00911609 0.00874565 -5.38672e-05 0.00892604 1.57821e-07 271.596 
-0.81 -0.37 -3.15047 1.4811 0.00915512 0.00872581 -3.6592e-05 0.00896348 1.5826e-07 271.98 
-0.89 -0.35 -1.52872 2.15355 0.00913685 0.00875261 -6.72609e-05 0.00894797 1.57956e-07 272.031 
-0.79 -0.37 -3.6408 2.54136 0.00915969 0.00876539 -3.50744e-05 0.00898512 1.584e-07 272.394 
-0.87 -0.35 -2.21139 2.1684 0.00913653 0.00877107 -5.12478e-05 0.00896985 1.58478e-07 271.798 
-0.77 -0.37 -3.94131 2.21913 0.00915931 0.00875263 -2.69743e-05 0.00898061 1.58596e-07 271.923 
-0.85 -0.35 -2.29975 2.30617 0.00917561 0.00876392 -5.35056e-05 0.00898818 1.58736e-07 271.912 
-0.83 -0.35 -2.90441 2.33891 0.00919103 0.00871977 -4.21938e-05 0.00897834 1.58805e-07 271.496 
-0.81 -0.35 -3.73266 2.06775 0.00918995 0.00871706 -4.80653e-05 0.00897233 1.58304e-07 272.172 
-0.79 -0.35 -3.80715 2.66804 0.00921621 0.00876557 -2.55815e-05 0.00898873 1.58643e-07 272.086 
-0.77 -0.35 -3.56257 2.41824 0.00921458 0.00876565 -3.66096e-05 0.00899845 1.58773e-07 272.158 
-0.75 -0.35 -4.10184 2.53584 0.00921264 0.00876805 -2.47463e-05 0.00901354 1.59196e-07 271.89 
-0.75 -0.49 -2.67277 0.100249 0.00907483 0.00879607 1.91265e-05 0.00893067 1.57247e-07 272.729 
-0.75 -0.43 -3.94624 0.785513 0.00913637 0.00881861 9.6245e-06 0.00898291 1.58355e-07 272.406 
-0.75 -0.39 -4.8758 1.7633 0.00917108 0.00878484 -1.60147e-05 0.00900516 1.58792e-07 272.328 
-0.75 -0.37 -3.9822 1.93442 0.00914919 0.00876618 -3.22084e-05 0.00897274 1.58281e-07 272.223 
-0.77 -0.33 -3.82254 2.66294 0.0091695 0.00875425 -3.82313e-05 0.00896356 1.58442e-07 271.669 
-0.73 -0.49 -2.91753 0.407427 0.00907547 0.00880514 1.5757e-05 0.00895261 1.57539e-07 272.893 
-0.73 -0.47 -3.20754 0.267194 0.0091145 0.00881553 5.22581e-06 0.00898618 1.58385e-07 272.453 
-0.73 -0.45 -3.70443 0.609423 0.00913242 0.0088146 7.76131e-06 0.00897088 1.58517e-07 271.763 
-0.73 -0.43 -4.75379 1.32145 0.00913932 0.00881862 9.01906e-06 0.00899052 1.5861e-07 272.198 
-0.73 -0.41 -4.57852 1.5259 0.00918096 0.00882425 8.86546e-06 0.0090162 1.58904e-07 272.471 
-0.73 -0.39 -4.66397 1.85533 0.00918864 0.00880397 -3.78875e-06 0.00900486 1.58506e-07 272.811 
-0.73 -0.37 -4.52331 1.91854 0.00916616 0.00881649 -3.49456e-05 0.00899547 1.5884e-07 271.953 
-0.73 -0.35 -4.46385 2.38411 0.00918932 0.00881067 -1.64145e-05 0.00900954 1.58605e-07 272.781 
-0.81 -0.29 -3.11243 3.59843 0.00915287 0.00870329 -7.52518e-05 0.00892937 1.57685e-07 271.932 
-0.89 -0.27 -1.87463 3.84034 0.00908896 0.00870617 -9.22198e-05 0.00889777 1.57396e-07 271.467 
-0.97 -0.25 -0.589171 3.8001 0.00910293 0.00871695 -0.000105343 0.00891384 1.57385e-07 271.978 
-0.83 -0.29 -2.87797 3.43611 0.00913191 0.0087143 -8.27421e-05 0.00893555 1.57192e-07 272.975 
-0.91 -0.27 -1.46643 4.13538 0.00909296 0.00868679 -9.89349e-05 0.00890057 1.57388e-07 271.567 
-0.99 -0.25 -0.400391 3.75268 0.00908496 0.0087193 -0.000110319 0.00891972 1.57884e-07 271.295 
-0.79 -0.29 -3.49149 3.53127 0.0091766 0.00874454 -6.25366e-05 0.00895873 1.5831e-07 271.749 
-0.87 -0.27 -2.05033 3.71653 0.00912928 0.00876997 -8.86591e-05 0.00895316 1.57878e-07 272.324 
-0.95 -0.25 -0.379919 3.95625 0.0091158 0.00874542 -0.00010844 0.00894096 1.58104e-07 271.563 
-0.77 -0.29 -3.97879 3.32158 0.00918158 0.00875186 -5.41049e-05 0.0089672 1.5876e-07 271.235 
-0.85 -0.27 -2.24551 3.62303 0.00913358 0.00873415 -6.76014e-05 0.00893819 1.57728e-07 272.127 
-0.93 -0.25 -0.53376 4.03126 0.00910211 0.00868893 -9.06632e-05 0.00890976 1.5756e-07 271.551 
-0.75 -0.29 -4.851 3.42282 0.00918037 0.00875731 -5.11958e-05 0.00898916 1.58642e-07 272.102 
-0.83 -0.27 -2.84283 3.6885 0.00917004 0.00875397 -6.83108e-05 0.0089746 1.58549e-07 271.82 
-0.91 -0.25 -1.00771 3.97626 0.00911121 0.00871256 -9.55179e-05 0.00891856 1.57608e-07 271.736 
-0.99 -0.23 0.0516628 4.373 0.00904363 0.00872082 -0.000131419 0.00891448 1.57382e-07 272.001 
-0.81 -0.27 -3.28703 3.89117 0.00915661 0.00870029 -9.37026e-05 0.00892751 1.57621e-07 271.987 
-0.89 -0.25 -1.47058 4.16798 0.00910258 0.00868878 -0.000115026 0.00890345 1.57424e-07 271.592 
-0.97 -0.23 -0.0419858 3.54716 0.00907243 0.00872689 -0.000130523 0.00891317 1.57882e-07 271.1 
-0.79 -0.27 -3.80981 4.10678 0.00918189 0.00872041 -8.30981e-05 0.00893341 1.57998e-07 271.517 
-0.87 -0.25 -1.88182 4.3247 0.00913173 0.0087451 -9.6288e-05 0.00895277 1.57928e-07 272.226 
-0.95 -0.23 -0.465473 4.1107 0.00909205 0.0087203 -0.000117151 0.00891651 1.57569e-07 271.74 
-0.77 -0.27 -4.05264 3.77082 0.00918451 0.00874243 -5.03821e-05 0.00895615 1.58297e-07 271.693 
-0.85 -0.25 -2.38569 4.11203 0.00916218 0.0087425 -0.000114491 0.00895149 1.5808e-07 271.925 
-0.93 -0.23 -0.86083 4.21682 0.00911387 0.00869551 -0.000114805 0.00891444 1.57528e-07 271.748 
-0.83 -0.25 -3.23644 4.39007 0.0091746 0.00872161 -9.25562e-05 0.00894397 1.5822e-07 271.455 
-0.91 -0.23 -1.17003 4.76735 0.00913016 0.00870627 -0.000101113 0.00893025 1.57464e-07 272.341 
-0.99 -0.21 0.391789 3.81416 0.0091717 0.00874402 -0.000123507 0.0089754 1.58562e-07 271.823 
-0.81 -0.25 -3.77679 4.24986 0.00917988 0.00872462 -7.27608e-05 0.008962 1.58239e-07 271.971 
-0.89 -0.23 -1.74692 4.49325 0.00915595 0.00870606 -0.000114036 0.00894564 1.57955e-07 271.961 
-0.97 -0.21 0.425209 3.87899 0.00914433 0.00870293 -0.000127158 0.0089387 1.58138e-07 271.436 
-0.79 -0.25 -4.14084 4.58715 0.00916525 0.00868923 -8.58097e-05 0.00893186 1.58135e-07 271.235 
-0.87 -0.23 -2.09854 4.38758 0.00917387 0.00874211 -0.000135456 0.00895987 1.58472e-07 271.506 
-0.95 -0.21 -0.243611 4.49023 0.00911729 0.00870699 -0.000124879 0.00892256 1.57502e-07 272.041 
-0.77 -0.25 -4.49255 3.62603 0.00917383 0.00872448 -7.39093e-05 0.00894807 1.58135e-07 271.726 
-0.85 -0.23 -2.62223 5.00645 0.00915711 0.00874409 -9.73459e-05 0.00895719 1.58012e-07 272.216 
-0.93 -0.21 -0.898105 5.04606 0.00912435 0.00869463 -0.000114922 0.0089081 1.57002e-07 272.465 
-0.83 -0.23 -3.16548 4.793 0.0091346 0.00869597 -9.92517e-05 0.00892899 1.57509e-07 272.224 
-0.91 -0.21 -1.14486 4.66633 0.00914583 0.00871486 -0.000128704 0.0089377 1.57656e-07 272.236 
-0.99 -0.19 -0.0111727 4.07581 0.00905786 0.00871959 -0.000140027 0.00890233 1.57272e-07 271.821 
-0.81 -0.23 -3.34403 4.44493 0.00917699 0.00871747 -0.000104893 0.00896181 1.58035e-07 272.316 
-0.89 -0.21 -1.49062 5.26676 0.00914911 0.0087273 -0.000131861 0.00896623 1.58075e-07 272.381 
-0.97 -0.19 -0.775755 4.22002 0.00910099 0.00870633 -0.000139717 0.00890824 1.57813e-07 271.069 
-0.79 -0.23 -3.33481 4.84871 0.0091971 0.00870095 -8.47095e-05 0.00895006 1.57899e-07 272.192 
-0.87 -0.21 -2.34993 4.91082 0.00913151 0.00868585 -0.000125417 0.00891522 1.57603e-07 271.642 
-0.95 -0.19 -0.80496 5.10497 0.00910533 0.00870521 -0.000108987 0.00890817 1.57502e-07 271.601 
-0.77 -0.23 -3.71515 4.34587 0.00918869 0.0087233 -8.69855e-05 0.00895193 1.58327e-07 271.513 
-0.85 -0.21 -3.35735 5.6347 0.00915905 0.00873679 -9.6621e-05 0.00895118 1.58088e-07 271.901 
-0.93 -0.19 -0.515642 5.07263 0.00912614 0.00870469 -0.000120149 0.00892851 1.57944e-07 271.46 
-0.75 -0.23 -4.48786 3.82688 0.00917377 0.00874825 -8.27519e-05 0.00896654 1.58705e-07 271.309 
-0.83 -0.21 -3.5771 5.06277 0.00916106 0.00872658 -9.73633e-05 0.00895117 1.58068e-07 271.936 
-0.91 -0.19 -1.13481 5.45957 0.00912976 0.00870674 -0.000130614 0.00892053 1.57585e-07 271.835 
-0.81 -0.21 -4.10826 4.71318 0.00912162 0.00869223 -9.07943e-05 0.00892085 1.57619e-07 271.786 
-0.89 -0.19 -1.69723 5.32513 0.00914052 0.00872409 -0.000121806 0.00894666 1.57845e-07 272.183 
-0.79 -0.21 -4.36394 4.74597 0.00911139 0.00869624 -9.37198e-05 0.00891575 1.57752e-07 271.403 
-0.87 -0.19 -2.02539 5.66971 0.00913919 0.00870085 -0.00012192 0.00893098 1.57887e-07 271.633 
-0.77 -0.21 -4.23071 4.9344 0.00913644 0.00871881 -8.36417e-05 0.00894621 1.58195e-07 271.566 
-0.85 -0.19 -2.29596 5.65045 0.00911464 0.00867834 -0.000123099 0.00889973 1.57828e-07 270.784 
-0.75 -0.21 -4.67143 4.54511 0.00916019 0.00875475 -9.64356e-05 0.00898194 1.58768e-07 271.667 
-0.83 -0.19 -2.46757 5.64473 0.00911286 0.00872112 -7.32938e-05 0.00892733 1.57589e-07 272.035 
-0.81 -0.19 -3.32564 5.14229 0.009122 0.00869851 -9.07072e-05 0.00892803 1.57835e-07 271.632 
-0.79 -0.19 -3.36524 5.20597 0.00913772 0.00869706 -9.5657e-05 0.00893276 1.58157e-07 271.224 
-0.77 -0.19 -3.92145 4.94896 0.00914358 0.0087322 -0.00011425 0.00895811 1.58779e-07 270.928 
-0.99 -0.33 0.402606 2.64362 0.00908855 0.00876595 -8.05746e-05 0.00893649 1.5806e-07 271.504 
-0.97 -0.33 0.0952497 2.90079 0.00911208 0.00875968 -9.38353e-05 0.00894959 1.5786e-07 272.246 
-0.91 -0.33 -0.891084 2.53889 0.00915613 0.00874365 -7.4602e-05 0.00894319 1.57877e-07 272.022 
-0.99 -0.31 -0.303325 2.88019 0.00912404 0.00875983 -7.88413e-05 0.00895892 1.58417e-07 271.571 
-0.97 -0.31 -0.341585 2.54023 0.00912373 0.0087587 -7.47848e-05 0.00896134 1.58006e-07 272.351 
-0.87 -0.33 -2.44526 2.5118 0.00914982 0.00877631 -7.67109e-05 0.00896707 1.58818e-07 271.133 
-0.95 -0.31 -0.967073 3.05153 0.00911779 0.00870933 -8.82906e-05 0.00892696 1.57636e-07 271.944 
-0.85 -0.33 -2.42743 2.32854 0.00914821 0.00874915 -6.55265e-05 0.00897306 1.58368e-07 272.084 
-0.93 -0.31 -1.09682 2.95597 0.00913314 0.00871756 -9.10585e-05 0.00891994 1.57418e-07 272.106 
-0.91 -0.31 -1.44085 2.95867 0.00916083 0.00873255 -6.05404e-05 0.00894171 1.57737e-07 272.219 
-0.99 -0.29 -0.0158542 2.83663 0.00904805 0.00874894 -0.000104112 0.00891666 1.57742e-07 271.447 
-0.81 -0.33 -3.06213 3.15218 0.00915258 0.00871359 -4.77796e-05 0.0089529 1.57634e-07 272.737 
-0.89 -0.31 -1.51555 3.3932 0.00916241 0.00874243 -7.26183e-05 0.00895807 1.58338e-07 271.682 
-0.97 -0.29 -0.341629 3.43409 0.00907921 0.00874487 -9.56967e-05 0.00891401 1.57545e-07 271.706 
-0.87 -0.31 -1.82413 3.22061 0.00915591 0.00876646 -6.57841e-05 0.00897753 1.58599e-07 271.823 
-0.95 -0.29 -0.501253 3.1509 0.00909393 0.00870643 -8.39102e-05 0.00891304 1.57173e-07 272.319 
-0.85 -0.31 -2.83887 2.49851 0.00912894 0.00874215 -6.04641e-05 0.00894355 1.58001e-07 271.82 
-0.93 -0.29 -1.2788 3.31472 0.00910748 0.00873875 -9.39458e-05 0.00892285 1.57602e-07 271.876 
-0.83 -0.31 -3.15351 3.19343 0.00913818 0.00871908 -5.88642e-05 0.00894147 1.5762e-07 272.413 
-0.91 -0.29 -1.60223 3.45034 0.00909693 0.00868752 -9.39048e-05 0.00890158 1.57328e-07 271.701 
-0.99 -0.27 -0.0739462 3.07349 0.00908747 0.00874099 -0.00011054 0.00892853 1.57612e-07 272.033 
-0.81 -0.31 -3.26334 3.32844 0.00915568 0.00871296 -5.3151e-05 0.0089489 1.57625e-07 272.631 
-0.89 -0.29 -1.91868 3.66588 0.0091252 0.00873674 -7.32306e-05 0.008927 1.57987e-07 271.341 
-0.97 -0.27 -0.469767 3.91703 0.0090622 0.00871822 -0.000100093 0.00890829 1.57223e-07 272.087 
-0.79 -0.31 -3.45876 2.94726 0.00915311 0.00875018 -5.7718e-05 0.00895652 1.58408e-07 271.513 
-0.87 -0.29 -2.17218 3.56251 0.00912155 0.00875205 -4.72003e-05 0.00893761 1.57966e-07 271.699 
-0.95 -0.27 -0.854932 3.5032 0.00907653 0.00872307 -0.000102189 0.00889557 1.57158e-07 271.812 
-0.77 -0.31 -3.98553 2.86267 0.00916705 0.00876089 -4.59325e-05 0.00896141 1.58943e-07 270.748 
-0.85 -0.29 -2.54948 3.33026 0.00915517 0.00875563 -6.13492e-05 0.00896417 1.58494e-07 271.599 
-0.93 -0.27 -1.21077 3.38487 0.00908201 0.00872406 -9.56889e-05 0.00891158 1.57309e-07 272.039 
-0.95 -0.33 0.0244981 2.44877 0.00913066 0.00872383 -6.87995e-05 0.00893596 1.58059e-07 271.489 
-0.93 -0.33 -0.560202 2.79322 0.00914204 0.00872314 -5.88127e-05 0.00893362 1.57716e-07 272.008 
-0.89 -0.33 -1.96815 2.82693 0.0091452 0.00873871 -5.61602e-05 0.00894462 1.58005e-07 271.845 
-0.83 -0.33 -2.6279 2.81868 0.00914931 0.00872849 -5.56841e-05 0.00896193 1.58306e-07 271.854 
-0.75 -0.31 -4.35644 2.86431 0.00918322 0.00874088 -3.75898e-05 0.00897926 1.58592e-07 271.887 
-0.75 -0.27 -4.28967 4.30673 0.00918133 0.00876192 -5.6235e-05 0.00895579 1.58222e-07 271.811 
-0.75 -0.25 -4.17039 4.14445 0.00920104 0.00876664 -5.81499e-05 0.00898036 1.58581e-07 271.939 
-0.75 -0.19 -4.42844 4.87212 0.00914099 0.00873527 -0.000106462 0.00895889 1.5863e-07 271.206 
-0.79 -0.33 -3.67626 2.6007 0.00915729 0.00875467 -3.40432e-05 0.00895753 1.58149e-07 271.99 
-0.75 -0.33 -3.91699 2.58083 0.009184 0.00875346 -2.81671e-05 0.00898196 1.58626e-07 271.912 
-0.81 -0.17 -3.41387 5.87898 0.00913273 0.0087096 -9.33389e-05 0.00892309 1.58e-07 271.2 
-0.79 -0.17 -4.19444 5.29444 0.00912687 0.00872701 -0.000120321 0.0089425 1.5817e-07 271.498 
-0.75 -0.17 -4.5798 5.61747 0.00916273 0.00871896 -0.000116807 0.00895426 1.58314e-07 271.607 
-0.73 -0.31 -4.5365 3.15622 0.00917937 0.00881436 -5.07314e-05 0.00901205 1.58852e-07 272.434 
-0.73 -0.29 -4.91937 2.88579 0.00919319 0.00881037 -4.56505e-05 0.00901642 1.59401e-07 271.627 
-0.73 -0.27 -4.9917 2.71021 0.00917872 0.00878731 -6.60607e-05 0.00899774 1.58752e-07 272.173 
-0.73 -0.25 -4.2433 3.46296 0.00922294 0.00878628 -6.8205e-05 0.00901936 1.59226e-07 272.014 
-0.73 -0.23 -4.6555 3.74455 0.00918086 0.0087804 -7.02568e-05 0.00898861 1.58748e-07 271.904 
-0.73 -0.21 -5.24574 3.88332 0.00917155 0.00876917 -8.6669e-05 0.00896584 1.58155e-07 272.232 
-0.73 -0.19 -4.60622 4.64822 0.00914675 0.00877154 -8.28672e-05 0.00897394 1.58524e-07 271.843 
-0.79 -0.05 -3.1151 7.53721 0.00905364 0.00870626 -0.000148129 0.00887525 1.57181e-07 271.151 
-0.87 -0.03 -2.46407 8.94293 0.00899464 0.00859268 -0.000188763 0.00881746 1.55819e-07 271.74 
-0.83 -0.05 -3.19805 7.71934 0.00901663 0.00867286 -0.00013656 0.0088806 1.56988e-07 271.648 
-0.91 -0.03 -1.7347 8.46534 0.00899472 0.00863117 -0.000182947 0.00882817 1.55975e-07 271.797 
-0.81 -0.05 -2.70921 7.95347 0.00905375 0.00869784 -0.000137964 0.00889102 1.57424e-07 271.213 
-0.89 -0.03 -2.1677 8.40973 0.0089936 0.00864141 -0.000166495 0.00884634 1.56267e-07 271.849 
-0.77 -0.05 -3.54233 7.14002 0.00906898 0.00874466 -0.000140592 0.00891843 1.57811e-07 271.381 
-0.85 -0.03 -2.29438 7.74246 0.00898905 0.00864179 -0.000167193 0.00883757 1.56548e-07 271.091 
-0.75 -0.05 -3.57527 6.49647 0.00907043 0.00875374 -0.000172194 0.00893222 1.57751e-07 271.906 
-0.83 -0.03 -2.37111 8.01929 0.00900977 0.00867244 -0.000168249 0.00885883 1.57023e-07 270.922 
-0.81 -0.03 -3.18677 7.89843 0.00900187 0.00867586 -0.000149627 0.00885721 1.57067e-07 270.796 
-0.79 -0.03 -3.04038 8.40899 0.00904972 0.00872027 -0.000153754 0.00890781 1.57691e-07 271.265 
-0.77 -0.03 -3.50999 7.00102 0.0090492 0.00873589 -0.000158348 0.00890565 1.57515e-07 271.503 
-0.95 -0.17 -0.80447 5.11397 0.0090694 0.00870299 -0.000151289 0.00888729 1.57443e-07 271.068 
-0.99 -0.15 -0.0715492 4.20946 0.00907675 0.00871312 -0.00016278 0.00891189 1.57374e-07 271.936 
-0.89 -0.17 -1.42009 5.63215 0.00911979 0.00870183 -0.000125171 0.0089185 1.57357e-07 272.167 
-0.97 -0.15 -0.587111 5.43239 0.00909047 0.00868116 -0.000169077 0.00889688 1.57216e-07 271.751 
-0.95 -0.15 -1.11536 5.52529 0.00908933 0.00870396 -0.000175349 0.00891952 1.57732e-07 271.551 
-0.93 -0.15 -1.33439 5.39206 0.0090784 0.00868615 -0.000158032 0.00890787 1.57618e-07 271.392 
-0.83 -0.17 -2.83837 5.91499 0.00911346 0.00871311 -9.18356e-05 0.00891491 1.57661e-07 271.533 
-0.91 -0.15 -1.4369 6.08666 0.00909771 0.00870795 -0.000158706 0.00890115 1.57481e-07 271.423 
-0.99 -0.13 -0.435745 4.76587 0.00906861 0.00871511 -0.000178651 0.00891231 1.57681e-07 271.42 
-0.89 -0.15 -1.32111 6.0507 0.00910413 0.00867173 -0.000131212 0.00890263 1.57479e-07 271.473 
-0.97 -0.13 -0.658213 5.72946 0.00909645 0.00868949 -0.00016197 0.00890415 1.57362e-07 271.721 
-0.87 -0.15 -1.70718 6.60005 0.00911395 0.00870172 -0.00010991 0.00893539 1.57676e-07 272.131 
-0.95 -0.13 -0.89001 6.18452 0.00910734 0.00868725 -0.000184304 0.0089106 1.57352e-07 271.936 
-0.77 -0.17 -4.16192 5.22927 0.00913419 0.00872012 -0.000110676 0.00894477 1.58197e-07 271.519 
-0.85 -0.15 -2.52547 6.47244 0.00911299 0.00864521 -0.000108511 0.00889154 1.57293e-07 271.455 
-0.93 -0.13 -1.5134 5.82224 0.00911732 0.00868841 -0.000158831 0.00891831 1.57502e-07 271.912 
-0.83 -0.15 -3.13331 5.99517 0.00913222 0.00871415 -0.000108417 0.00893524 1.58052e-07 271.479 
-0.91 -0.13 -1.87527 5.92757 0.00911475 0.0087037 -0.00016472 0.00893088 1.57874e-07 271.652 
-0.99 -0.11 -0.133599 5.37782 0.00906212 0.00868888 -0.000185025 0.00889198 1.56935e-07 272.087 
-0.81 -0.15 -3.39667 6.50664 0.00913828 0.00873343 -0.00011468 0.00894484 1.5816e-07 271.585 
-0.89 -0.13 -2.60719 6.01081 0.00911573 0.00864331 -0.000145325 0.00890141 1.5793e-07 270.66 
-0.97 -0.11 -0.557116 5.97706 0.00906174 0.00870971 -0.000196242 0.00891374 1.57519e-07 271.741 
-0.79 -0.15 -3.84307 5.38307 0.00915075 0.00873871 -0.000124478 0.00895154 1.58292e-07 271.562 
-0.87 -0.13 -2.52792 6.75993 0.00911594 0.00865885 -0.000121986 0.00891889 1.5788e-07 271.277 
-0.95 -0.11 -0.736498 6.33053 0.00906176 0.00866088 -0.000176907 0.00888582 1.57024e-07 271.746 
-0.77 -0.15 -4.03837 5.2935 0.00915879 0.00871453 -0.000135164 0.00894806 1.58427e-07 271.224 
-0.85 -0.13 -2.56799 6.8391 0.00912976 0.00866595 -0.000107883 0.00890759 1.57747e-07 271.163 
-0.93 -0.11 -1.18664 6.3603 0.00908376 0.00868788 -0.00017546 0.0089169 1.57896e-07 271.19 
-0.75 -0.15 -4.02705 5.60951 0.00912953 0.00870953 -0.000115967 0.00893797 1.58304e-07 271.13 
-0.83 -0.13 -2.56457 6.50949 0.00914395 0.00869737 -0.000127813 0.00894252 1.57907e-07 271.949 
-0.91 -0.11 -1.8568 6.64813 0.00907789 0.00868654 -0.000164368 0.0089067 1.57553e-07 271.47 
-0.99 -0.09 0.186288 5.53309 0.00901244 0.00868057 -0.000218247 0.00885122 1.56167e-07 272.173 
-0.81 -0.13 -3.16942 7.04149 0.00912825 0.00873333 -0.000115594 0.00894496 1.58404e-07 271.17 
-0.89 -0.11 -2.59343 7.1046 0.00907066 0.00862898 -0.00014016 0.00885927 1.57093e-07 270.815 
-0.97 -0.09 -0.429803 6.84644 0.00905297 0.0086984 -0.000197191 0.00889896 1.57262e-07 271.736 
-0.79 -0.13 -3.00274 5.75698 0.00912313 0.00874703 -0.000122785 0.00894049 1.57914e-07 271.875 
-0.87 -0.11 -3.25314 6.60204 0.00906284 0.00862145 -0.000121938 0.00886964 1.57221e-07 270.91 
-0.95 -0.09 -0.713819 6.48697 0.00907224 0.00867322 -0.000183479 0.00889704 1.56955e-07 272.207 
-0.77 -0.13 -3.74505 5.51007 0.00909693 0.00868725 -0.000131214 0.00890757 1.57533e-07 271.531 
-0.85 -0.11 -3.16266 6.70311 0.009109 0.00868503 -0.000136398 0.00890427 1.57659e-07 271.212 
-0.93 -0.09 -0.976317 6.87126 0.00904803 0.00865825 -0.000190771 0.00887971 1.57072e-07 271.474 
-0.83 -0.11 -3.29946 7.33255 0.00910493 0.00868761 -0.000130225 0.00891047 1.576e-07 271.503 
-0.91 -0.09 -1.51091 7.29463 0.0090457 0.00865185 -0.00013443 0.00887638 1.56885e-07 271.697 
-0.99 -0.07 -0.601225 6.27977 0.00902401 0.00867659 -0.000205895 0.00885382 1.5666e-07 271.396 
-0.81 -0.11 -3.48708 6.27923 0.00913319 0.00872742 -0.000120589 0.00895355 1.57841e-07 272.4 
-0.89 -0.09 -1.77555 7.63631 0.00903977 0.00862678 -0.00014864 0.00885621 1.56914e-07 271.029 
-0.97 -0.07 -0.545675 6.84528 0.00899671 0.00866427 -0.000208036 0.00884855 1.56399e-07 271.688 
-0.79 -0.11 -3.44226 6.20237 0.00912751 0.00872926 -0.000110679 0.00894719 1.58255e-07 271.493 
-0.87 -0.09 -1.80081 7.1113 0.00907793 0.00864382 -0.00016648 0.00888205 1.57461e-07 270.877 
-0.95 -0.07 -0.642416 6.78235 0.00899505 0.00868003 -0.00018601 0.00885101 1.56293e-07 271.946 
-0.77 -0.11 -4.01665 6.51332 0.00912737 0.00869715 -0.000125211 0.00893962 1.57769e-07 272.099 
-0.85 -0.09 -2.20167 6.83151 0.00905486 0.00865199 -0.000157011 0.00886387 1.57201e-07 270.768 
-0.93 -0.07 -1.31999 7.76709 0.00899496 0.00864091 -0.000172241 0.00884234 1.56202e-07 271.838 
-0.75 -0.11 -4.50233 5.80264 0.00911456 0.00872638 -0.000124319 0.00894544 1.5822e-07 271.501 
-0.83 -0.09 -2.7177 7.25431 0.00909143 0.00870673 -0.000144065 0.00891759 1.57582e-07 271.75 
-0.91 -0.07 -1.58504 7.30305 0.00900998 0.00862938 -0.00018128 0.00885323 1.56424e-07 271.788 
-0.99 -0.05 0.428656 6.65413 0.00896019 0.0086403 -0.000213325 0.00881825 1.56001e-07 271.448 
-0.81 -0.09 -3.09002 7.01093 0.00908432 0.00870967 -0.000135177 0.00891513 1.57777e-07 271.34 
-0.89 -0.07 -1.40872 7.73058 0.00904433 0.00865468 -0.000175776 0.00887458 1.56791e-07 271.806 
-0.97 -0.05 -0.24852 6.94533 0.00897892 0.00867639 -0.000201431 0.00884744 1.56363e-07 271.716 
-0.79 -0.09 -3.94308 6.52557 0.00909479 0.00873965 -0.000106744 0.00891895 1.57921e-07 271.208 
-0.87 -0.07 -1.9141 7.40139 0.00904722 0.00862655 -0.000155066 0.00887063 1.57062e-07 271.215 
-0.95 -0.05 -0.342435 7.36447 0.00897558 0.00865739 -0.000200362 0.00884768 1.56338e-07 271.766 
-0.77 -0.09 -4.1142 6.52435 0.00910293 0.00870408 -0.000116871 0.00892636 1.5792e-07 271.436 
-0.85 -0.07 -2.52053 7.50954 0.00905775 0.00865885 -0.000139384 0.00888456 1.57e-07 271.748 
-0.93 -0.05 -0.670215 8.04312 0.00898813 0.00862787 -0.000182865 0.00882549 1.56116e-07 271.47 
-0.75 -0.09 -4.50903 6.41742 0.00909998 0.00873398 -0.000136306 0.00894068 1.58029e-07 271.684 
-0.83 -0.07 -2.69234 7.84118 0.00904488 0.00868133 -0.000150405 0.00888471 1.56978e-07 271.79 
-0.91 -0.05 -1.32224 8.16875 0.00900083 0.00864656 -0.000180282 0.00885727 1.56251e-07 272.213 
-0.99 -0.03 -0.207481 6.69647 0.00896486 0.00864991 -0.000218944 0.00882227 1.56136e-07 271.336 
-0.81 -0.07 -3.37743 7.80221 0.00903767 0.00870202 -0.000141651 0.0088843 1.57198e-07 271.398 
-0.89 -0.05 -1.71599 7.76363 0.00900034 0.00864318 -0.000190287 0.00884088 1.56361e-07 271.518 