ITEM: TIMESTEP
870500
ITEM: NUMBER OF CELLS
5000
ITEM: BOX BOUNDS ss ss pp
-1 1
-0.5 0.5
-0.5 0.5
ITEM: CELLS xc yc f_U[*] f_V[*] f_Tau[1] f_Tau[2] f_Tau[3] f_Press[*] f_Mrho[*] f_Ttra[*] 
-0.99 -0.49 -0.191693 0.278171 0.00899412 0.00876448 -3.32482e-05 0.00888778 1.56655e-07 272.446 
-0.97 -0.49 -0.697335 0.0783718 0.0089815 0.00877143 -3.70835e-05 0.00888273 1.56631e-07 272.332 
-0.95 -0.49 -0.784173 0.0833828 0.00898678 0.008748 -3.38402e-05 0.0088817 1.56796e-07 272.014 
-0.93 -0.49 -0.916972 0.0992854 0.00900047 0.00875811 -3.21355e-05 0.0088945 1.56971e-07 272.102 
-0.91 -0.49 -1.3189 0.073773 0.00901215 0.00872405 -2.45779e-05 0.00886995 1.56748e-07 271.738 
-0.99 -0.47 -0.186263 0.56462 0.00903182 0.00877875 -2.32845e-05 0.00891954 1.5722e-07 272.437 
-0.89 -0.49 -1.71175 0.300339 0.00904423 0.00874605 -2.31812e-05 0.00890456 1.57094e-07 272.198 
-0.97 -0.47 -0.223303 0.4361 0.00902645 0.0087692 -3.91919e-05 0.00891107 1.56912e-07 272.712 
-0.87 -0.49 -1.87747 -0.100707 0.00905593 0.00876624 -5.05639e-06 0.00891042 1.57356e-07 271.923 
-0.95 -0.47 -0.660642 0.384402 0.00903365 0.00875679 -3.78496e-05 0.00890623 1.57041e-07 272.34 
-0.85 -0.49 -1.95184 0.25449 0.00905901 0.00876737 -6.07609e-06 0.0089114 1.57122e-07 272.358 
-0.93 -0.47 -1.25734 0.367395 0.00904113 0.00874879 -3.90179e-05 0.00890371 1.57e-07 272.334 
-0.83 -0.49 -1.96757 -0.185521 0.00906816 0.00877998 -1.05701e-06 0.00892577 1.57434e-07 272.255 
-0.91 -0.47 -1.44214 0.653979 0.00904713 0.00873137 -3.15643e-05 0.00890261 1.57197e-07 271.959 
-0.99 -0.45 -0.164822 0.845918 0.00905783 0.00878271 -2.83435e-05 0.00893102 1.5751e-07 272.285 
-0.81 -0.49 -2.05526 0.309322 0.00905922 0.0087735 6.66156e-06 0.00891768 1.57282e-07 272.272 
-0.89 -0.47 -1.99092 0.582615 0.00903372 0.00873659 -3.59755e-05 0.00889214 1.57013e-07 271.957 
-0.97 -0.45 -0.519631 0.67807 0.00906698 0.00877736 -3.18812e-05 0.00893787 1.57408e-07 272.671 
-0.79 -0.49 -2.53212 0.149085 0.00905068 0.0087682 2.66593e-05 0.00891956 1.5741e-07 272.108 
-0.87 -0.47 -2.20563 0.0682418 0.00904659 0.00874669 -1.93627e-05 0.00890735 1.57031e-07 272.391 
-0.95 -0.45 -0.867997 0.921431 0.00905578 0.00876476 -4.41529e-05 0.00891708 1.57147e-07 272.488 
-0.77 -0.49 -2.53351 -0.115775 0.00905855 0.00879435 3.48691e-05 0.00893592 1.57486e-07 272.475 
-0.85 -0.47 -2.21893 0.139001 0.00906829 0.00877158 -1.00301e-05 0.00892297 1.57261e-07 272.47 
-0.93 -0.45 -1.21856 0.591907 0.009055 0.00872502 -4.65331e-05 0.0088989 1.57124e-07 271.973 
-0.83 -0.47 -2.47887 0.159704 0.00906499 0.00876621 -4.11447e-06 0.00892133 1.57253e-07 272.433 
-0.91 -0.45 -1.578 0.96266 0.00905866 0.00874049 -2.97181e-05 0.00890428 1.57347e-07 271.751 
-0.99 -0.43 -0.270794 1.27424 0.00908285 0.00878097 -3.386e-05 0.00894383 1.57782e-07 272.206 
-0.81 -0.47 -2.71166 0.459088 0.00907552 0.00875897 9.62614e-06 0.0089266 1.57492e-07 272.182 
-0.89 -0.45 -1.85649 0.741124 0.00907035 0.00872581 -3.39888e-05 0.00889378 1.5703e-07 271.978 
-0.97 -0.43 -0.503844 0.826502 0.00908413 0.00878041 -3.36598e-05 0.00894884 1.57619e-07 272.64 
-0.79 -0.47 -2.86104 0.399575 0.00908962 0.00875622 1.98108e-05 0.00893286 1.57546e-07 272.278 
-0.87 -0.45 -2.09962 0.449088 0.00907331 0.00874336 -2.99473e-05 0.00890778 1.56977e-07 272.498 
-0.95 -0.43 -0.743229 1.07709 0.00909644 0.00877348 -4.19074e-05 0.00894101 1.5773e-07 272.209 
-0.77 -0.47 -3.25159 0.125546 0.00909722 0.00880118 1.55127e-05 0.00895218 1.57999e-07 272.085 
-0.85 -0.45 -2.38215 0.1675 0.00907612 0.00875268 -1.33273e-05 0.00892265 1.57127e-07 272.693 
-0.93 -0.43 -1.15139 1.25424 0.00909439 0.00873087 -4.09445e-05 0.00891926 1.57158e-07 272.536 
-0.75 -0.47 -3.26587 0.217523 0.00909695 0.00881027 1.79207e-05 0.00896174 1.57768e-07 272.775 
-0.83 -0.45 -2.6511 0.509485 0.00909239 0.00876396 -1.52846e-05 0.00893379 1.57522e-07 272.348 
-0.91 -0.43 -1.62638 0.995482 0.00908515 0.00872684 -3.99664e-05 0.00890475 1.5713e-07 272.141 
-0.99 -0.41 -0.183837 1.5908 0.00908901 0.00878358 -3.99202e-05 0.00894967 1.58017e-07 271.978 
-0.81 -0.45 -2.93414 0.776474 0.0090997 0.00874053 -6.86738e-06 0.00893027 1.57463e-07 272.343 
-0.89 -0.43 -1.41687 0.98526 0.00908591 0.00872414 -3.56284e-05 0.00890721 1.57178e-07 272.132 
-0.97 -0.41 -0.517693 1.21299 0.00910517 0.00878886 -4.96817e-05 0.00895157 1.57694e-07 272.593 
-0.79 -0.45 -3.26642 0.792457 0.00910465 0.00875197 1.36863e-05 0.0089365 1.57742e-07 272.051 
-0.87 -0.43 -1.61145 0.630828 0.00908934 0.00873955 -3.62224e-05 0.00891677 1.57253e-07 272.295 
-0.95 -0.41 -0.788105 1.37412 0.00910694 0.00877475 -3.92088e-05 0.00894665 1.57712e-07 272.412 
-0.77 -0.45 -3.53578 0.284367 0.00912651 0.00879905 1.15662e-05 0.00896201 1.58122e-07 272.172 
-0.85 -0.43 -2.06161 0.744089 0.00909947 0.00874618 -2.981e-05 0.00893137 1.5745e-07 272.4 
-0.93 -0.41 -1.17618 1.75681 0.00910074 0.00871832 -4.14336e-05 0.00891413 1.57271e-07 272.182 
-0.75 -0.45 -3.60991 0.233752 0.00912221 0.00881228 1.21564e-05 0.00896675 1.58453e-07 271.746 
-0.83 -0.43 -2.46057 0.916825 0.00910426 0.00875808 -1.084e-05 0.00894124 1.57586e-07 272.464 
-0.91 -0.41 -1.3353 1.26699 0.00911054 0.00872829 -3.30237e-05 0.00892679 1.57504e-07 272.166 
-0.99 -0.39 -0.216563 1.98106 0.00909009 0.00878689 -6.16389e-05 0.00895598 1.582e-07 271.855 
-0.81 -0.43 -3.08181 0.988494 0.00910459 0.0087335 -9.85238e-06 0.00893324 1.57654e-07 272.104 
-0.89 -0.41 -1.68739 1.05768 0.0091055 0.00873821 -3.72569e-05 0.00892868 1.57376e-07 272.445 
-0.97 -0.39 -0.627099 1.47801 0.00910569 0.00878277 -5.10806e-05 0.0089503 1.57965e-07 272.086 
-0.79 -0.43 -3.3113 0.913732 0.00912206 0.00874706 -1.01476e-05 0.00894259 1.57818e-07 272.105 
-0.87 -0.41 -2.03181 1.04684 0.0090987 0.00872685 -3.75128e-05 0.00892647 1.57336e-07 272.448 
-0.95 -0.39 -0.937215 1.56888 0.00909907 0.00875964 -3.75582e-05 0.00893105 1.57399e-07 272.477 
-0.77 -0.43 -3.50767 0.661043 0.00914317 0.0087917 -1.3871e-06 0.0089744 1.58285e-07 272.268 
-0.85 -0.41 -2.37966 0.980547 0.00910237 0.00874475 -3.57704e-05 0.00893946 1.57734e-07 272.154 
-0.93 -0.39 -0.553621 1.88446 0.00911008 0.00872838 -2.97456e-05 0.00892178 1.57495e-07 272.028 
-0.83 -0.41 -2.74027 1.33189 0.0091174 0.00873885 -2.84584e-05 0.00894083 1.5768e-07 272.289 
-0.91 -0.39 -1.15503 1.7694 0.00910301 0.00872113 -4.99277e-05 0.00891755 1.5737e-07 272.116 
-0.99 -0.37 0.122069 2.21547 0.00910592 0.00880558 -5.65781e-05 0.00897326 1.58588e-07 271.712 
-0.81 -0.41 -2.93812 1.4059 0.00913196 0.0087361 -1.96189e-05 0.00894642 1.57876e-07 272.122 
-0.89 -0.39 -1.64465 1.41168 0.00911196 0.00874038 -4.50889e-05 0.00894507 1.57684e-07 272.413 
-0.97 -0.37 -0.249817 2.00669 0.00910181 0.00876145 -5.33151e-05 0.00894768 1.57839e-07 272.225 
-0.79 -0.41 -3.1561 1.18291 0.00914747 0.008754 -2.21709e-05 0.00895898 1.58172e-07 271.994 
-0.87 -0.39 -1.91482 1.30037 0.00912823 0.00872401 -3.90806e-05 0.00893764 1.57621e-07 272.295 
-0.95 -0.37 -0.657566 1.73083 0.00911799 0.00874766 -4.75711e-05 0.00893124 1.57797e-07 271.796 
-0.77 -0.41 -3.87948 1.07548 0.00914823 0.00877907 -2.23334e-05 0.00896889 1.58308e-07 272.061 
-0.85 -0.39 -2.42821 1.48113 0.00914453 0.00875253 -4.41741e-05 0.00895452 1.58174e-07 271.854 
-0.93 -0.37 -1.32258 2.00044 0.00912173 0.00873396 -4.10155e-05 0.00894048 1.57782e-07 272.102 
-0.75 -0.41 -4.19001 1.10544 0.00917012 0.00879686 -8.06048e-06 0.0089982 1.58651e-07 272.36 
-0.83 -0.39 -2.69793 1.69668 0.00913744 0.00872611 -4.06454e-05 0.00894417 1.57895e-07 272.021 
-0.91 -0.37 -1.32658 2.22534 0.00913722 0.00872906 -5.43199e-05 0.00894648 1.57765e-07 272.314 
-0.99 -0.35 -0.189233 2.18857 0.00909706 0.00879837 -7.51773e-05 0.00896655 1.58315e-07 271.979 
-0.81 -0.39 -2.83517 1.35535 0.0091498 0.00873594 -2.99797e-05 0.00895401 1.57805e-07 272.476 
-0.89 -0.37 -1.72903 1.97848 0.00914416 0.00873246 -4.93536e-05 0.00894926 1.57799e-07 272.342 
-0.97 -0.35 -0.333331 2.51169 0.00910964 0.00874798 -6.34335e-05 0.00894384 1.57958e-07 271.902 
-0.79 -0.39 -3.32607 1.85903 0.00914864 0.00874263 -2.77472e-05 0.0089601 1.58026e-07 272.279 
-0.87 -0.37 -2.36793 1.80513 0.0091506 0.00872422 -5.36177e-05 0.00894451 1.57539e-07 272.645 
-0.95 -0.35 -0.566028 1.98274 0.00911549 0.00873875 -5.21105e-05 0.00893524 1.57807e-07 271.901 
-0.77 -0.39 -3.83388 1.56269 0.0091561 0.00878618 -2.45753e-05 0.00898544 1.58553e-07 272.142 
-0.85 -0.37 -2.73403 1.78769 0.0091471 0.00874494 -4.90925e-05 0.00895125 1.58008e-07 272.042 
-0.93 -0.35 -1.06736 2.55463 0.00913307 0.00873854 -5.87367e-05 0.00895105 1.57905e-07 272.212 
-0.83 -0.37 -2.90763 1.78093 0.00914804 0.00871788 -4.07222e-05 0.00894351 1.57866e-07 272.051 
-0.91 -0.35 -1.54771 2.27238 0.00912668 0.00873434 -5.13304e-05 0.00893322 1.57638e-07 272.131 
-0.81 -0.37 -3.30362 1.67137 0.0091579 0.00872358 -3.31667e-05 0.00895588 1.57978e-07 272.234 
-0.89 -0.35 -1.75511 2.58022 0.00912693 0.00872648 -5.93276e-05 0.00893387 1.57635e-07 272.155 
-0.79 -0.37 -3.65896 2.21381 0.0091666 0.00875285 -3.0646e-05 0.00898085 1.5838e-07 272.299 
-0.87 -0.35 -2.29748 2.08842 0.00913371 0.00872961 -5.09575e-05 0.00894395 1.57817e-07 272.149 
-0.77 -0.37 -3.92935 2.35211 0.00916594 0.00877806 -2.73608e-05 0.00898302 1.5851e-07 272.143 
-0.85 -0.35 -2.56646 2.29419 0.00914969 0.00872636 -5.2045e-05 0.00894493 1.57956e-07 271.939 
-0.83 -0.35 -3.23041 2.12534 0.00915895 0.00872184 -4.50202e-05 0.00894549 1.57969e-07 271.934 
-0.81 -0.35 -3.61984 2.24753 0.00916345 0.00872047 -5.38832e-05 0.00895491 1.58058e-07 272.066 
-0.79 -0.35 -3.74081 2.41751 0.0091849 0.00874069 -3.92297e-05 0.0089726 1.58329e-07 272.138 
-0.77 -0.35 -3.92969 2.62339 0.00919722 0.00877324 -2.94191e-05 0.00899273 1.58434e-07 272.567 
-0.75 -0.35 -4.22869 2.3522 0.00919455 0.00878558 -1.99563e-05 0.00900249 1.58745e-07 272.328 
-0.75 -0.49 -2.70092 0.183501 0.00907933 0.0088083 1.94309e-05 0.00894637 1.57887e-07 272.101 
-0.75 -0.43 -3.93076 0.67452 0.00915991 0.00881282 2.74797e-06 0.00899548 1.58733e-07 272.137 
-0.75 -0.39 -4.8177 1.6438 0.00915794 0.00878347 -2.24155e-05 0.00898771 1.58501e-07 272.299 
-0.75 -0.37 -4.18405 2.03063 0.00916292 0.00878415 -2.47336e-05 0.00898438 1.58245e-07 272.639 
-0.77 -0.33 -3.99069 2.77467 0.00915529 0.00874845 -4.49445e-05 0.00895396 1.5817e-07 271.845 
-0.73 -0.49 -3.03901 0.209257 0.00908162 0.0088139 1.89396e-05 0.00895904 1.58066e-07 272.178 
-0.73 -0.47 -3.21552 0.148538 0.00909645 0.00880457 2.08614e-05 0.0089661 1.58198e-07 272.165 
-0.73 -0.45 -3.71694 0.38334 0.00913373 0.00880353 9.41794e-06 0.00898014 1.58457e-07 272.146 
-0.73 -0.43 -4.66265 0.874548 0.00916465 0.00880633 -1.1617e-08 0.00899778 1.5869e-07 272.281 
-0.73 -0.41 -4.6817 1.31261 0.00917913 0.00881113 -2.40315e-06 0.00900867 1.58824e-07 272.38 
-0.73 -0.39 -4.70801 1.48826 0.00916843 0.00880347 -8.5744e-06 0.00900001 1.5865e-07 272.416 
-0.73 -0.37 -4.68062 1.75685 0.00916418 0.00878802 -2.67228e-05 0.00898814 1.58579e-07 272.179 
-0.73 -0.35 -4.47555 2.04681 0.00918809 0.00879183 -2.03499e-05 0.00899726 1.58709e-07 272.232 
-0.81 -0.29 -3.03715 3.44482 0.00915351 0.00871262 -6.9878e-05 0.00893947 1.5805e-07 271.612 
-0.89 -0.27 -1.86892 3.78117 0.00911501 0.00869214 -8.05898e-05 0.00891648 1.57455e-07 271.937 
-0.97 -0.25 -0.595469 3.86948 0.00909349 0.00871431 -0.000105077 0.00891092 1.57285e-07 272.06 
-0.83 -0.29 -2.88737 3.37685 0.00913293 0.00872263 -7.20957e-05 0.00894245 1.57634e-07 272.419 
-0.91 -0.27 -1.18021 3.9984 0.00911235 0.00871625 -9.00052e-05 0.0089274 1.57714e-07 271.823 
-0.99 -0.25 -0.132953 3.74727 0.00908887 0.00873684 -0.000107884 0.0089286 1.57649e-07 271.97 
-0.79 -0.29 -3.35034 3.25437 0.00917115 0.00872557 -6.02925e-05 0.00895129 1.58245e-07 271.634 
-0.87 -0.27 -2.40224 3.97992 0.00912527 0.00872229 -7.3885e-05 0.00893998 1.57821e-07 272.021 
-0.95 -0.25 -0.653381 3.92988 0.00910523 0.00873492 -0.000115027 0.00893014 1.57686e-07 271.955 
-0.77 -0.29 -3.89814 3.33426 0.00918794 0.00874073 -4.50439e-05 0.00897406 1.58553e-07 271.797 
-0.85 -0.27 -2.4988 3.72527 0.00914092 0.00872277 -7.36378e-05 0.0089394 1.57879e-07 271.904 
-0.93 -0.25 -0.935492 4.0235 0.00910142 0.00870852 -0.000105856 0.00891616 1.57494e-07 271.859 
-0.75 -0.29 -4.52792 3.19268 0.00918911 0.00877384 -5.16889e-05 0.00899829 1.58813e-07 272.084 
-0.83 -0.27 -2.88819 3.62119 0.00915368 0.0087322 -6.98348e-05 0.00895479 1.58213e-07 271.796 
-0.91 -0.25 -1.36281 4.37082 0.00911177 0.00871311 -9.32879e-05 0.00892108 1.57618e-07 271.795 
-0.99 -0.23 -0.0427626 3.91701 0.00906997 0.00873441 -0.000123086 0.00891908 1.57448e-07 272.027 
-0.81 -0.27 -3.4096 3.76886 0.00914746 0.0087123 -8.30779e-05 0.00893443 1.57875e-07 271.758 
-0.89 -0.25 -1.87247 4.41391 0.00911374 0.00868089 -9.01651e-05 0.00891357 1.57416e-07 271.915 
-0.97 -0.23 -0.148509 4.17418 0.00909201 0.00872867 -0.000124372 0.00892492 1.57656e-07 271.847 
-0.79 -0.27 -3.8707 3.66921 0.0091586 0.00870651 -7.64218e-05 0.00893556 1.58141e-07 271.336 
-0.87 -0.25 -2.30974 4.35009 0.00914253 0.00871569 -8.45077e-05 0.00894877 1.58052e-07 271.89 
-0.95 -0.23 -0.682243 4.20124 0.00909968 0.00871825 -0.000123716 0.00892054 1.57468e-07 272.037 
-0.77 -0.27 -4.09088 3.85672 0.00917443 0.00874074 -6.34201e-05 0.00896893 1.58455e-07 271.809 
-0.85 -0.25 -2.74263 4.03429 0.0091596 0.00873152 -9.27355e-05 0.00895179 1.58052e-07 271.982 
-0.93 -0.23 -1.10832 4.42995 0.00911306 0.00871048 -0.000114511 0.00892388 1.57582e-07 271.943 
-0.83 -0.25 -3.12226 4.10952 0.00916387 0.00871287 -8.31174e-05 0.00893838 1.58189e-07 271.34 
-0.91 -0.23 -1.35629 4.7805 0.0091256 0.00869042 -0.00010332 0.00892373 1.57466e-07 272.139 
-0.99 -0.21 0.0232734 3.96539 0.00910569 0.00873938 -0.000132577 0.00894537 1.58115e-07 271.678 
-0.81 -0.25 -3.4653 4.18838 0.00917232 0.0087279 -7.42264e-05 0.008958 1.58363e-07 271.636 
-0.89 -0.23 -1.91447 4.9946 0.00914432 0.00868592 -9.76995e-05 0.00893351 1.57806e-07 271.851 
-0.97 -0.21 -0.0377196 4.36786 0.00911148 0.00870826 -0.000129015 0.00892806 1.57768e-07 271.75 
-0.79 -0.25 -3.91282 4.31663 0.00915515 0.00869891 -8.07028e-05 0.00893336 1.58065e-07 271.399 
-0.87 -0.23 -2.37937 4.72385 0.00915156 0.00871647 -0.00011039 0.00893908 1.57964e-07 271.747 
-0.95 -0.21 -0.372901 4.69408 0.009114 0.00871748 -0.000125329 0.00893131 1.5754e-07 272.242 
-0.77 -0.25 -4.41769 3.95414 0.00916042 0.00873233 -8.48886e-05 0.00894745 1.58008e-07 271.926 
-0.85 -0.23 -2.81585 4.67018 0.00914475 0.00872251 -9.12189e-05 0.00893928 1.57892e-07 271.877 
-0.93 -0.21 -1.04156 4.92588 0.00911637 0.00870213 -0.00012181 0.00891643 1.57486e-07 271.881 
-0.83 -0.23 -3.24019 4.38655 0.00913861 0.00870787 -8.41199e-05 0.00892934 1.57788e-07 271.755 
-0.91 -0.21 -1.44866 5.10983 0.00912679 0.00868433 -0.000117879 0.00892012 1.57561e-07 271.864 
-0.99 -0.19 -0.134401 4.15021 0.00908507 0.00873908 -0.000140899 0.00893453 1.57924e-07 271.678 
-0.81 -0.23 -3.61077 4.18234 0.00915381 0.00871535 -8.90077e-05 0.00894978 1.57993e-07 272.023 
-0.89 -0.21 -1.63623 5.43614 0.00914426 0.00869583 -0.00011572 0.0089443 1.58031e-07 271.791 
-0.97 -0.19 -0.759787 4.70221 0.00909822 0.0087009 -0.000144429 0.00890427 1.57656e-07 271.217 
-0.79 -0.23 -3.63552 4.79189 0.00918099 0.00871287 -8.26624e-05 0.00895501 1.58199e-07 271.827 
-0.87 -0.21 -1.9559 5.0819 0.00914333 0.00869156 -0.000112606 0.0089344 1.58072e-07 271.419 
-0.95 -0.19 -0.899638 5.03883 0.0091075 0.0087216 -0.000126017 0.00891418 1.5751e-07 271.771 
-0.77 -0.23 -3.98959 4.38319 0.00918675 0.00873436 -9.15488e-05 0.00896894 1.583e-07 272.076 
-0.85 -0.21 -2.75044 5.18568 0.0091555 0.00871016 -8.98655e-05 0.00894563 1.57926e-07 272.012 
-0.93 -0.19 -0.980439 5.35357 0.00912098 0.00869428 -0.000125884 0.0089238 1.57763e-07 271.628 
-0.75 -0.23 -4.38618 4.01805 0.00918594 0.00876196 -9.3814e-05 0.00898708 1.58674e-07 271.983 
-0.83 -0.21 -3.34918 4.66952 0.00917581 0.00871929 -9.39902e-05 0.00895771 1.58137e-07 272.015 
-0.91 -0.19 -1.38598 5.52488 0.00911922 0.00867518 -0.000126813 0.00890427 1.57364e-07 271.721 
-0.81 -0.21 -3.63403 4.63503 0.00916507 0.00870753 -8.78617e-05 0.00895521 1.5823e-07 271.78 
-0.89 -0.19 -1.75718 5.56546 0.00912597 0.0086879 -0.000120586 0.00892294 1.57695e-07 271.719 
-0.79 -0.21 -3.9607 4.97582 0.00916014 0.00871531 -0.000101662 0.00895264 1.58228e-07 271.706 
-0.87 -0.19 -2.21096 5.57934 0.00913257 0.00868794 -0.000105781 0.00892737 1.57729e-07 271.796 
-0.77 -0.21 -4.22962 4.6528 0.00916847 0.00873387 -9.21441e-05 0.0089593 1.58274e-07 271.828 
-0.85 -0.19 -2.41537 5.63074 0.00913178 0.00869367 -0.000112917 0.00892444 1.58024e-07 271.2 
-0.75 -0.21 -4.67885 4.59938 0.0091793 0.00875329 -9.4635e-05 0.00898222 1.5849e-07 272.152 
-0.83 -0.19 -2.76453 5.2996 0.00912932 0.00871667 -0.000101097 0.00893587 1.57871e-07 271.809 
-0.81 -0.19 -3.37208 5.03238 0.00914992 0.00870388 -0.000105836 0.00893282 1.57927e-07 271.62 
-0.79 -0.19 -4.01216 5.22459 0.0091686 0.00872125 -9.08979e-05 0.00896382 1.5843e-07 271.698 
-0.77 -0.19 -4.24908 5.22597 0.00917379 0.00874149 -0.000105489 0.00896712 1.58661e-07 271.402 
-0.99 -0.33 -0.0958912 2.54167 0.00909733 0.00878266 -8.32736e-05 0.00895981 1.58064e-07 272.206 
-0.97 -0.33 -0.336499 2.50547 0.00910898 0.00874481 -7.82407e-05 0.00894313 1.57917e-07 271.951 
-0.91 -0.33 -1.26718 2.82145 0.00915043 0.0087425 -5.70213e-05 0.00894515 1.57891e-07 272.058 
-0.99 -0.31 -0.207211 2.99626 0.00908148 0.00876682 -8.6995e-05 0.00893825 1.57775e-07 272.047 
-0.97 -0.31 -0.46015 2.52213 0.00909274 0.0087374 -7.82978e-05 0.00892922 1.57771e-07 271.779 
-0.87 -0.33 -2.15883 2.62507 0.00915271 0.00873483 -6.71489e-05 0.00895395 1.58106e-07 271.955 
-0.95 -0.31 -1.05288 3.16255 0.00909907 0.00872521 -7.85741e-05 0.00892348 1.57554e-07 271.979 
-0.85 -0.33 -2.47949 2.60821 0.00914977 0.00872156 -6.04875e-05 0.00895196 1.57977e-07 272.116 
-0.93 -0.31 -1.34113 3.20578 0.00911403 0.008732 -7.90736e-05 0.00893148 1.57716e-07 271.943 
-0.91 -0.31 -1.83557 2.95976 0.00914243 0.00873127 -6.88297e-05 0.0089454 1.57747e-07 272.314 
-0.99 -0.29 -0.0504528 3.08288 0.00905254 0.00875122 -0.000105052 0.00891903 1.57512e-07 271.915 
-0.81 -0.33 -3.45156 2.5452 0.00916315 0.00871898 -4.72852e-05 0.00895707 1.57929e-07 272.355 
-0.89 -0.31 -1.97413 3.26264 0.00915537 0.00872223 -6.2271e-05 0.00895026 1.58015e-07 271.998 
-0.97 -0.29 -0.610881 3.34262 0.00907301 0.00872763 -9.15097e-05 0.00891398 1.57577e-07 271.65 
-0.87 -0.31 -2.0641 3.00719 0.00915747 0.00873187 -6.6603e-05 0.00895306 1.58203e-07 271.761 
-0.95 -0.29 -0.798768 3.49071 0.00908729 0.00871473 -8.94035e-05 0.00891697 1.57306e-07 272.208 
-0.85 -0.31 -2.74727 2.98598 0.00914693 0.00871672 -5.68386e-05 0.00894001 1.57851e-07 271.97 
-0.93 -0.29 -1.21873 3.37891 0.00910371 0.00874188 -9.22801e-05 0.00893012 1.57538e-07 272.209 
-0.83 -0.31 -2.94215 3.18311 0.00914503 0.00872419 -5.16042e-05 0.00895116 1.57799e-07 272.398 
-0.91 -0.29 -1.30306 3.54149 0.00909379 0.00871411 -8.59754e-05 0.00891603 1.57447e-07 271.936 
-0.99 -0.27 -0.146267 3.41939 0.00908065 0.0087454 -0.000110781 0.00893296 1.57848e-07 271.76 
-0.81 -0.31 -3.43767 3.01047 0.00914572 0.00871018 -5.32828e-05 0.00894344 1.57747e-07 272.253 
-0.89 -0.29 -1.6275 3.4159 0.00910808 0.00871542 -7.71287e-05 0.00892443 1.5767e-07 271.807 
-0.97 -0.27 -0.311752 3.64907 0.00907695 0.00871456 -0.000107163 0.00891362 1.5735e-07 272.03 
-0.79 -0.31 -3.73174 2.91793 0.00915406 0.00874136 -5.01972e-05 0.00895462 1.58203e-07 271.809 
-0.87 -0.29 -2.14911 3.44832 0.00911147 0.00872206 -5.25498e-05 0.008926 1.57822e-07 271.594 
-0.95 -0.27 -0.677958 3.6925 0.00908925 0.0087245 -9.76354e-05 0.00891376 1.57458e-07 271.848 
-0.77 -0.31 -3.91046 3.05757 0.00915881 0.00873965 -4.33664e-05 0.00894737 1.58362e-07 271.315 
-0.85 -0.29 -2.59781 3.56242 0.00912198 0.00871462 -5.95704e-05 0.00893476 1.57965e-07 271.614 
-0.93 -0.27 -0.755351 3.65908 0.00909844 0.00872245 -9.621e-05 0.00892114 1.57358e-07 272.247 
-0.95 -0.33 -0.573611 2.49591 0.00912354 0.00872744 -6.30211e-05 0.00893823 1.57758e-07 272.077 
-0.93 -0.33 -1.02666 2.94469 0.00913462 0.00873414 -5.76628e-05 0.00894272 1.57754e-07 272.22 
-0.89 -0.33 -1.83916 2.79753 0.0091491 0.00871694 -5.78434e-05 0.00893894 1.57769e-07 272.078 
-0.83 -0.33 -3.01696 2.79064 0.00915332 0.00872083 -6.14337e-05 0.0089564 1.58e-07 272.212 
-0.75 -0.31 -4.26187 2.73926 0.00917279 0.00877235 -4.18703e-05 0.00898803 1.5869e-07 271.985 
-0.75 -0.27 -4.42122 3.88173 0.00920323 0.00877185 -6.28269e-05 0.00899079 1.587e-07 272.051 
-0.75 -0.25 -4.45598 3.93013 0.00917348 0.00876906 -7.66892e-05 0.00897622 1.58615e-07 271.757 
-0.75 -0.19 -4.57891 4.93107 0.00916554 0.00874162 -9.93611e-05 0.00897165 1.58684e-07 271.5 
-0.79 -0.33 -3.84115 2.66627 0.00915157 0.0087402 -4.36582e-05 0.00895715 1.58123e-07 272.023 
-0.75 -0.33 -4.19521 2.351 0.00916494 0.00877624 -2.41093e-05 0.00898337 1.58701e-07 271.825 
-0.81 -0.17 -3.59312 5.91353 0.00913366 0.00870185 -0.000109741 0.00892084 1.57659e-07 271.717 
-0.79 -0.17 -4.11787 5.62347 0.00913339 0.00872502 -0.000116088 0.00894818 1.58023e-07 271.922 
-0.75 -0.17 -4.41931 5.41214 0.00916035 0.00874262 -0.000107727 0.00896177 1.58335e-07 271.799 
-0.73 -0.31 -4.95852 2.74987 0.00917964 0.00879214 -4.67736e-05 0.00899474 1.58632e-07 272.288 
-0.73 -0.29 -4.56948 3.13785 0.00919402 0.00879427 -4.87214e-05 0.00900513 1.59173e-07 271.676 
-0.73 -0.27 -5.07168 3.22583 0.00921054 0.00879352 -6.12635e-05 0.0090138 1.59091e-07 272.078 
-0.73 -0.25 -4.52774 3.66484 0.00919383 0.00878056 -6.81715e-05 0.00900286 1.5918e-07 271.596 
-0.73 -0.23 -4.81217 3.97398 0.00918267 0.00876578 -7.52125e-05 0.00898189 1.58681e-07 271.815 
-0.73 -0.21 -5.03118 4.18346 0.00919552 0.00876232 -9.29138e-05 0.00897659 1.58548e-07 271.882 
-0.73 -0.19 -4.81346 4.71318 0.00916764 0.00877165 -0.000100676 0.00898011 1.58658e-07 271.799 
-0.79 -0.05 -3.32243 7.62558 0.00905059 0.00870186 -0.000157865 0.00888904 1.57436e-07 271.132 
-0.87 -0.03 -2.4169 8.64335 0.00899155 0.00860988 -0.000182726 0.00881814 1.56212e-07 271.078 
-0.83 -0.05 -2.66633 8.28293 0.00903087 0.00869424 -0.000146451 0.00888897 1.57049e-07 271.798 
-0.91 -0.03 -1.86911 8.13764 0.00899777 0.00863052 -0.00018606 0.00882824 1.56179e-07 271.444 
-0.81 -0.05 -2.83885 7.82315 0.00904381 0.00869233 -0.000136224 0.00888662 1.57452e-07 271.03 
-0.89 -0.03 -1.96096 8.50386 0.00898341 0.00863061 -0.000175878 0.00882499 1.56218e-07 271.277 
-0.77 -0.05 -3.62949 6.97865 0.00906933 0.00874373 -0.000155327 0.00892011 1.57798e-07 271.456 
-0.85 -0.03 -2.54159 8.04182 0.00899638 0.00864417 -0.00017481 0.00884428 1.56585e-07 271.232 
-0.75 -0.05 -3.95203 7.05404 0.0090795 0.00877087 -0.000171019 0.00893762 1.57969e-07 271.695 
-0.83 -0.03 -2.56895 8.51178 0.00902461 0.00867953 -0.000168601 0.00887383 1.57179e-07 271.111 
-0.81 -0.03 -3.11387 8.16121 0.00903628 0.00868672 -0.000156229 0.00888058 1.57424e-07 270.894 
-0.79 -0.03 -3.12195 8.08023 0.00905865 0.00871728 -0.000155983 0.00890027 1.57483e-07 271.393 
-0.77 -0.03 -3.55702 7.23797 0.00905434 0.00874141 -0.000164338 0.00891328 1.57588e-07 271.609 
-0.95 -0.17 -0.937626 5.21832 0.00908324 0.00870916 -0.000151249 0.00890075 1.57478e-07 271.417 
-0.99 -0.15 -0.18921 4.80271 0.00904759 0.00871678 -0.000171872 0.00890206 1.57213e-07 271.915 
-0.89 -0.17 -1.72771 5.78321 0.00912042 0.00867459 -0.000123354 0.00891015 1.5723e-07 272.132 
-0.97 -0.15 -0.527016 5.45102 0.00906933 0.00870852 -0.000169272 0.00890365 1.57334e-07 271.755 
-0.95 -0.15 -0.87436 5.63257 0.00907966 0.00869425 -0.000158104 0.00890067 1.57409e-07 271.534 
-0.93 -0.15 -1.15962 5.75591 0.00908121 0.00867134 -0.00014059 0.00890016 1.57373e-07 271.58 
-0.83 -0.17 -2.92321 5.72711 0.00913823 0.00871544 -0.00010065 0.00893973 1.58022e-07 271.667 
-0.91 -0.15 -1.56395 6.30651 0.0090887 0.00867902 -0.000147057 0.00890001 1.5742e-07 271.495 
-0.99 -0.13 -0.228766 5.18301 0.00905273 0.00872189 -0.000192308 0.00889985 1.57429e-07 271.473 
-0.89 -0.15 -1.58304 6.03687 0.00909246 0.00865985 -0.000125437 0.00889253 1.57222e-07 271.609 
-0.97 -0.13 -0.528422 5.85822 0.0090597 0.00869391 -0.00016266 0.00888506 1.57111e-07 271.571 
-0.87 -0.15 -2.03555 6.2464 0.00910155 0.00868648 -0.000123067 0.00891843 1.57337e-07 272.2 
-0.95 -0.13 -0.884072 6.14283 0.00906414 0.00867722 -0.000163359 0.00888668 1.57397e-07 271.128 
-0.77 -0.17 -4.27325 5.18959 0.00914914 0.00873434 -0.000105818 0.00895239 1.58403e-07 271.398 
-0.85 -0.15 -2.38745 6.54221 0.00910579 0.00867732 -0.000109469 0.00891239 1.57532e-07 271.679 
-0.93 -0.13 -1.31802 5.99454 0.00907785 0.00867257 -0.000159697 0.0088958 1.57178e-07 271.785 
-0.83 -0.15 -2.91564 6.17864 0.00912436 0.00871112 -0.000120374 0.00893472 1.57935e-07 271.665 
-0.91 -0.13 -1.77198 6.62324 0.00908411 0.00866889 -0.000149182 0.00889896 1.5729e-07 271.687 
-0.99 -0.11 -0.149844 5.49637 0.00904412 0.00869938 -0.000180813 0.00888999 1.57157e-07 271.642 
-0.81 -0.15 -3.26728 6.30055 0.00913599 0.00871457 -0.000109811 0.00894107 1.57816e-07 272.062 
-0.89 -0.13 -2.1136 6.05921 0.00909625 0.00864758 -0.000138678 0.00889376 1.57448e-07 271.256 
-0.97 -0.11 -0.57388 6.15806 0.00904138 0.00868316 -0.000181074 0.00887944 1.57019e-07 271.558 
-0.79 -0.15 -3.65764 5.95247 0.00913676 0.00872462 -0.000121322 0.00894564 1.5811e-07 271.695 
-0.87 -0.13 -2.57771 6.8188 0.00910464 0.00867004 -0.000127127 0.00891601 1.5768e-07 271.534 
-0.95 -0.11 -0.8283 6.40271 0.00905853 0.00867199 -0.00017682 0.00888095 1.56976e-07 271.679 
-0.77 -0.15 -4.15281 5.51989 0.00914717 0.00872922 -0.000119982 0.00894966 1.58402e-07 271.316 
-0.85 -0.13 -2.90369 6.67436 0.00912534 0.00868652 -0.00012968 0.0089249 1.57751e-07 271.683 
-0.93 -0.11 -1.22211 6.52234 0.00907716 0.00867041 -0.000169668 0.00889738 1.57365e-07 271.51 
-0.75 -0.15 -4.51791 5.67713 0.00914655 0.0087414 -0.00011213 0.00896163 1.58493e-07 271.523 
-0.83 -0.13 -2.97844 6.73697 0.00913456 0.00870185 -0.00012583 0.00893954 1.57728e-07 272.168 
-0.91 -0.11 -1.55035 6.93286 0.00908037 0.00865525 -0.000157128 0.00887791 1.57054e-07 271.451 
-0.99 -0.09 0.0193998 5.81468 0.00899596 0.00868156 -0.000204829 0.00885333 1.56552e-07 271.568 
-0.81 -0.13 -3.40718 6.68209 0.00912067 0.00870697 -0.000113784 0.00892981 1.57909e-07 271.559 
-0.89 -0.11 -1.93255 6.77585 0.00908532 0.00864245 -0.000147374 0.00887949 1.57289e-07 271.094 
-0.97 -0.09 -0.506967 6.71843 0.00902527 0.00868207 -0.000195769 0.00887979 1.57173e-07 271.304 
-0.79 -0.13 -3.47333 6.23528 0.00913324 0.00873373 -0.00012396 0.00894613 1.58069e-07 271.78 
-0.87 -0.11 -2.43776 7.15232 0.00909383 0.00865751 -0.000146187 0.00890016 1.57655e-07 271.095 
-0.95 -0.09 -1.01545 6.64655 0.00903963 0.00867357 -0.000183227 0.00888147 1.57189e-07 271.328 
-0.77 -0.13 -3.84564 5.96108 0.00912775 0.00871543 -0.00012046 0.00893521 1.57952e-07 271.651 
-0.85 -0.11 -2.65321 6.86853 0.00910375 0.00868792 -0.000127522 0.00890739 1.57609e-07 271.393 
-0.93 -0.09 -1.03757 6.77552 0.00903255 0.0086492 -0.000180114 0.00886122 1.56987e-07 271.056 
-0.83 -0.11 -3.04405 7.23458 0.00909102 0.00868743 -0.000126407 0.00891061 1.57498e-07 271.683 
-0.91 -0.09 -1.3022 7.26612 0.00903336 0.00864095 -0.000153817 0.00885944 1.56867e-07 271.209 
-0.99 -0.07 -0.550704 6.32196 0.00899883 0.00867141 -0.000209301 0.00885103 1.56545e-07 271.51 
-0.81 -0.11 -3.3912 6.65932 0.00912623 0.00871445 -0.000129122 0.00893703 1.57822e-07 271.929 
-0.89 -0.09 -2.09696 7.35869 0.00904203 0.00864393 -0.000161808 0.00885789 1.56976e-07 270.974 
-0.97 -0.07 -0.649001 6.92172 0.00898882 0.00866624 -0.000204433 0.00885277 1.56642e-07 271.394 
-0.79 -0.11 -3.53218 6.40567 0.00912736 0.00872228 -0.000122985 0.00894203 1.58217e-07 271.403 
-0.87 -0.09 -2.39136 7.48444 0.00906175 0.00864722 -0.000156547 0.00887541 1.57294e-07 270.96 
-0.95 -0.07 -0.734493 6.825 0.00899293 0.00867592 -0.000183945 0.00885286 1.56492e-07 271.658 
-0.77 -0.11 -3.90744 6.20753 0.00913173 0.00871935 -0.000127094 0.00894759 1.58121e-07 271.735 
-0.85 -0.09 -2.66656 7.22371 0.00906791 0.00866318 -0.000144513 0.00888086 1.57215e-07 271.264 
-0.93 -0.07 -1.27052 7.34126 0.00899557 0.00862959 -0.000180052 0.00884043 1.5649e-07 271.279 
-0.75 -0.11 -4.39161 6.22758 0.00913927 0.00875658 -0.00012575 0.00896428 1.58496e-07 271.598 
-0.83 -0.09 -3.00513 7.12865 0.00909628 0.00870735 -0.000138479 0.00892447 1.57714e-07 271.734 
-0.91 -0.07 -1.69605 7.51783 0.00901703 0.00863123 -0.000179797 0.008851 1.56545e-07 271.508 
-0.99 -0.05 0.0510911 6.76905 0.0089756 0.00866857 -0.000215969 0.00884155 1.56387e-07 271.493 
-0.81 -0.09 -3.23555 7.20071 0.00909498 0.00871128 -0.000145341 0.00891878 1.57736e-07 271.522 
-0.89 -0.07 -1.85859 7.87802 0.00904016 0.00865412 -0.000176161 0.00886251 1.56966e-07 271.133 
-0.97 -0.05 -0.473316 7.0768 0.0089991 0.00866639 -0.000211125 0.0088558 1.56723e-07 271.346 
-0.79 -0.09 -3.81869 6.75589 0.0091016 0.00871596 -0.000125841 0.00892442 1.57869e-07 271.464 
-0.87 -0.07 -2.21831 7.82938 0.00903775 0.0086285 -0.000158172 0.00885937 1.56904e-07 271.144 
-0.95 -0.05 -0.674352 7.21744 0.00899866 0.0086464 -0.000199194 0.00884557 1.56468e-07 271.475 
-0.77 -0.09 -4.03953 6.71453 0.00909787 0.00872138 -0.000119831 0.00893838 1.57981e-07 271.697 
-0.85 -0.07 -2.55052 7.57051 0.00904607 0.00865477 -0.000150602 0.00887372 1.56905e-07 271.58 
-0.93 -0.05 -1.29341 7.71383 0.00899917 0.00862796 -0.000175545 0.00883617 1.56397e-07 271.309 
-0.75 -0.09 -4.3274 6.44019 0.00908582 0.00875031 -0.0001314 0.00893716 1.58044e-07 271.551 
-0.83 -0.07 -3.04249 7.72536 0.00905091 0.0087006 -0.000144638 0.00889257 1.57121e-07 271.784 
-0.91 -0.05 -1.39456 7.89503 0.00900068 0.00863437 -0.000184997 0.00884067 1.56473e-07 271.316 
-0.99 -0.03 -0.0899204 6.92499 0.00896452 0.00866918 -0.000233463 0.00883129 1.56329e-07 271.279 
-0.81 -0.07 -3.6989 7.73158 0.00904886 0.00870755 -0.000148518 0.00889722 1.5738e-07 271.478 
-0.89 -0.05 -1.71878 8.15761 0.00900828 0.00864386 -0.000184772 0.00884536 1.56815e-07 270.868 
-0.97 -0.03 -0.402991 7.54587 0.00896544 0.00863678 -0.000218274 0.00882403 1.56359e-07 271.003 