ITEM: TIMESTEP
978500
ITEM: NUMBER OF CELLS
5000
ITEM: BOX BOUNDS ss ss pp
-1 1
-0.5 0.5
-0.5 0.5
ITEM: CELLS xc yc f_U[*] f_V[*] f_Tau[1] f_Tau[2] f_Tau[3] f_Press[*] f_Mrho[*] f_Ttra[*] 
-0.99 -0.49 -0.186372 0.297598 0.00899191 0.00874834 -2.8192e-05 0.00887887 1.56646e-07 272.189 
-0.97 -0.49 -0.55748 0.0702111 0.00899002 0.00874612 -3.11809e-05 0.00887957 1.56567e-07 272.347 
-0.95 -0.49 -0.634613 0.00475157 0.00899151 0.00874214 -3.30051e-05 0.00887567 1.56623e-07 272.129 
-0.93 -0.49 -0.834479 0.150302 0.00900058 0.00875113 -2.22518e-05 0.00888286 1.56761e-07 272.11 
-0.91 -0.49 -1.13003 0.0854252 0.00900619 0.00872559 -2.16229e-05 0.00886998 1.56584e-07 272.024 
-0.99 -0.47 -0.215723 0.591604 0.00902114 0.00877099 -1.44656e-05 0.00890432 1.57005e-07 272.344 
-0.89 -0.49 -1.51648 0.238155 0.0090264 0.00874473 -2.65274e-05 0.00888805 1.56866e-07 272.087 
-0.97 -0.47 -0.431229 0.332666 0.00901789 0.00874536 -3.35552e-05 0.00889482 1.56782e-07 272.44 
-0.87 -0.49 -1.70181 0.00119781 0.00904723 0.0087708 -1.45456e-05 0.00890812 1.57177e-07 272.162 
-0.95 -0.47 -0.827801 0.329918 0.00902397 0.00874612 -3.37042e-05 0.00889464 1.56807e-07 272.391 
-0.85 -0.49 -1.89133 0.137741 0.00904799 0.00875378 -6.38413e-06 0.0089005 1.56893e-07 272.421 
-0.93 -0.47 -1.05172 0.283784 0.00902654 0.00874264 -3.66322e-05 0.00889113 1.56759e-07 272.367 
-0.83 -0.49 -1.93478 -0.0543592 0.0090512 0.00876456 5.58662e-08 0.00891369 1.57136e-07 272.403 
-0.91 -0.47 -1.34622 0.614678 0.0090407 0.00873394 -3.3741e-05 0.00889113 1.56929e-07 272.072 
-0.99 -0.45 -0.110078 0.929774 0.00904579 0.00877098 -2.56102e-05 0.00891758 1.57238e-07 272.345 
-0.81 -0.49 -2.14226 0.290159 0.00905866 0.0087707 1.31467e-05 0.00892164 1.57297e-07 272.368 
-0.89 -0.47 -1.67823 0.40126 0.00904209 0.00874121 -3.37601e-05 0.00889052 1.57007e-07 271.919 
-0.97 -0.45 -0.400007 0.658802 0.00905046 0.00875922 -3.39055e-05 0.00891133 1.57102e-07 272.39 
-0.79 -0.49 -2.51053 0.0522279 0.00906643 0.00877827 1.22424e-05 0.00892905 1.57465e-07 272.302 
-0.87 -0.47 -1.93578 0.250258 0.00904492 0.00875031 -2.55528e-05 0.00890796 1.57131e-07 272.237 
-0.95 -0.45 -0.787411 0.763993 0.00905165 0.00874607 -3.82289e-05 0.00890484 1.56934e-07 272.483 
-0.77 -0.49 -2.50756 -0.0183021 0.00907005 0.00879493 2.12677e-05 0.00894394 1.57652e-07 272.434 
-0.85 -0.47 -2.11062 0.297544 0.00905511 0.00875274 -1.08947e-05 0.00891358 1.57144e-07 272.386 
-0.93 -0.45 -1.27569 0.514297 0.00906217 0.00873887 -4.63055e-05 0.00890426 1.57104e-07 272.17 
-0.83 -0.47 -2.4621 0.143694 0.00906327 0.00875563 -8.19421e-06 0.00892034 1.5725e-07 272.409 
-0.91 -0.45 -1.37564 0.783292 0.00906199 0.00873867 -3.96609e-05 0.0089003 1.57187e-07 271.906 
-0.99 -0.43 -0.174335 1.17761 0.00906629 0.00876765 -3.59696e-05 0.00893297 1.5769e-07 272.033 
-0.81 -0.47 -2.59882 0.524507 0.00907521 0.00876087 -2.44132e-06 0.00893065 1.57449e-07 272.379 
-0.89 -0.45 -1.7673 0.75762 0.00907489 0.00873064 -3.87501e-05 0.00890214 1.57188e-07 271.961 
-0.97 -0.43 -0.535611 1.06027 0.00908191 0.00877111 -3.75438e-05 0.00893559 1.57561e-07 272.335 
-0.79 -0.47 -2.8733 0.376027 0.00908814 0.0087717 9.23897e-06 0.00894611 1.57741e-07 272.345 
-0.87 -0.45 -2.1018 0.570399 0.00907832 0.0087408 -2.35714e-05 0.00891451 1.57243e-07 272.242 
-0.95 -0.43 -0.786443 0.991507 0.00908603 0.00875055 -4.72743e-05 0.00892086 1.57428e-07 272.116 
-0.77 -0.47 -3.2297 0.100425 0.00909793 0.00879104 1.04585e-05 0.00895441 1.57934e-07 272.265 
-0.85 -0.45 -2.38498 0.420382 0.00908698 0.0087444 -2.14642e-05 0.00892375 1.57319e-07 272.394 
-0.93 -0.43 -0.94867 0.940471 0.00908535 0.00873975 -4.13617e-05 0.00891673 1.57317e-07 272.182 
-0.75 -0.47 -3.28454 0.375851 0.00910255 0.00879862 1.66842e-05 0.0089558 1.5773e-07 272.66 
-0.83 -0.45 -2.62458 0.46495 0.00909993 0.00875661 -1.85545e-05 0.00893642 1.57622e-07 272.256 
-0.91 -0.43 -1.50457 1.04761 0.00908525 0.008737 -4.46102e-05 0.00891016 1.57256e-07 272.087 
-0.99 -0.41 -0.214691 1.58213 0.00908504 0.00876714 -5.01936e-05 0.00893907 1.57733e-07 272.144 
-0.81 -0.45 -2.92427 0.838581 0.00909684 0.00874674 -1.24838e-05 0.00893342 1.57546e-07 272.295 
-0.89 -0.43 -1.53058 1.06918 0.00907661 0.0087238 -4.2558e-05 0.00890359 1.57221e-07 271.948 
-0.97 -0.41 -0.409339 1.18813 0.00909453 0.0087698 -4.96064e-05 0.00893819 1.57583e-07 272.377 
-0.79 -0.45 -3.08552 0.641368 0.00910362 0.00876414 -2.37493e-07 0.00894523 1.57764e-07 272.28 
-0.87 -0.43 -1.83223 0.804031 0.00908714 0.00873141 -4.06358e-05 0.00891882 1.57336e-07 272.214 
-0.95 -0.41 -0.545299 1.27501 0.00910266 0.0087607 -4.55045e-05 0.00894184 1.57694e-07 272.297 
-0.77 -0.45 -3.43584 0.415015 0.00911308 0.00878435 7.67652e-06 0.00895535 1.57843e-07 272.451 
-0.85 -0.43 -2.18779 0.828809 0.00910545 0.00874346 -3.08159e-05 0.00893211 1.57568e-07 272.219 
-0.93 -0.41 -1.11459 1.39587 0.0090972 0.00872617 -4.47808e-05 0.00892473 1.57518e-07 272.079 
-0.75 -0.45 -3.69099 0.465146 0.00911243 0.00879112 1.34249e-05 0.00895701 1.57966e-07 272.289 
-0.83 -0.43 -2.62602 0.822291 0.00910574 0.00874472 -1.8108e-05 0.0089323 1.5752e-07 272.307 
-0.91 -0.41 -1.26981 1.30981 0.00910245 0.00873861 -4.00197e-05 0.00892657 1.5767e-07 271.873 
-0.99 -0.39 -0.146295 1.83602 0.0090875 0.00877205 -5.20452e-05 0.00894437 1.57911e-07 271.998 
-0.81 -0.43 -3.06814 1.04753 0.00911578 0.0087435 -1.6477e-05 0.00894284 1.57763e-07 272.207 
-0.89 -0.41 -1.5865 1.27539 0.00910527 0.00873343 -4.53838e-05 0.0089239 1.57403e-07 272.252 
-0.97 -0.39 -0.510475 1.39811 0.00909528 0.00877227 -5.36177e-05 0.00894112 1.57782e-07 272.123 
-0.79 -0.43 -3.39726 0.89743 0.00912632 0.0087553 -9.50587e-06 0.00895285 1.57956e-07 272.18 
-0.87 -0.41 -2.00296 1.24688 0.00910418 0.0087229 -4.32271e-05 0.00892565 1.57388e-07 272.332 
-0.95 -0.39 -0.873441 1.56117 0.00909122 0.00874805 -4.8459e-05 0.00892515 1.57454e-07 272.202 
-0.77 -0.43 -3.65136 0.693991 0.00913429 0.00877562 3.5648e-06 0.00896388 1.58133e-07 272.21 
-0.85 -0.41 -2.58244 1.17292 0.00910024 0.00873779 -3.88955e-05 0.00893108 1.57627e-07 272.085 
-0.93 -0.39 -0.79314 1.69576 0.00910261 0.00872943 -4.31712e-05 0.0089239 1.57496e-07 272.091 
-0.83 -0.41 -2.78067 1.20557 0.0091138 0.00873361 -3.18174e-05 0.00893029 1.57594e-07 272.117 
-0.91 -0.39 -1.22248 1.70667 0.00910879 0.00874062 -4.94679e-05 0.00893403 1.57657e-07 272.122 
-0.99 -0.37 0.0667857 2.06874 0.00908789 0.0087855 -6.15749e-05 0.00894896 1.58049e-07 271.901 
-0.81 -0.41 -2.99722 1.38721 0.00912274 0.00873592 -2.05266e-05 0.00893816 1.57744e-07 272.098 
-0.89 -0.39 -1.55002 1.58677 0.00911394 0.00873629 -4.81434e-05 0.00893707 1.57641e-07 272.243 
-0.97 -0.37 -0.378812 1.9224 0.00909348 0.00875717 -6.03069e-05 0.0089381 1.57761e-07 272.066 
-0.79 -0.41 -3.31486 1.07936 0.00913449 0.0087511 -1.81266e-05 0.00895541 1.58011e-07 272.162 
-0.87 -0.39 -1.90296 1.65379 0.00911637 0.00871291 -4.66445e-05 0.00892864 1.57607e-07 272.045 
-0.95 -0.37 -0.739662 1.7285 0.00910916 0.00874767 -5.27366e-05 0.00893762 1.57791e-07 272.001 
-0.77 -0.41 -3.6846 1.12286 0.00913916 0.00876809 -1.59538e-05 0.00896698 1.58254e-07 272.095 
-0.85 -0.39 -2.22299 1.63927 0.00912793 0.00873763 -4.13221e-05 0.00894422 1.5797e-07 271.893 
-0.93 -0.37 -1.23523 1.87193 0.0091153 0.00873267 -5.68101e-05 0.00893501 1.57716e-07 272.05 
-0.75 -0.41 -4.0021 0.989145 0.00915824 0.00879048 -7.67408e-06 0.008985 1.58464e-07 272.28 
-0.83 -0.39 -2.67007 1.50895 0.00912599 0.00872405 -4.08177e-05 0.00893136 1.57684e-07 271.994 
-0.91 -0.37 -1.38715 1.96209 0.00912647 0.00873705 -5.93994e-05 0.00894095 1.57673e-07 272.305 
-0.99 -0.35 -0.191663 2.15886 0.00910081 0.00877934 -7.50919e-05 0.00895167 1.58168e-07 271.779 
-0.81 -0.39 -2.98475 1.55801 0.00913172 0.00873159 -3.59961e-05 0.00894217 1.57721e-07 272.26 
-0.89 -0.37 -1.68097 1.95263 0.00913258 0.0087324 -4.98504e-05 0.00894182 1.57905e-07 271.933 
-0.97 -0.35 -0.337536 2.38963 0.00910977 0.00875221 -6.63479e-05 0.00894473 1.57878e-07 272.068 
-0.79 -0.39 -3.25886 1.50777 0.00914009 0.00873884 -2.57713e-05 0.00895491 1.58097e-07 272 
-0.87 -0.37 -2.13949 2.15552 0.00913224 0.00871511 -5.03488e-05 0.00893442 1.57652e-07 272.143 
-0.95 -0.35 -0.700307 2.03458 0.00911617 0.00874059 -6.47132e-05 0.00893585 1.57743e-07 272.029 
-0.77 -0.39 -3.73162 1.50906 0.00915284 0.00877351 -1.9916e-05 0.0089776 1.58422e-07 272.129 
-0.85 -0.37 -2.55701 2.01747 0.0091343 0.00872945 -5.18222e-05 0.00893882 1.57801e-07 272.02 
-0.93 -0.35 -1.12547 2.30436 0.00912294 0.00873673 -6.43455e-05 0.0089391 1.57804e-07 272.023 
-0.83 -0.37 -2.98066 1.83362 0.00914293 0.0087201 -4.09242e-05 0.00893404 1.57776e-07 271.918 
-0.91 -0.35 -1.54199 2.31755 0.0091189 0.00873488 -5.55384e-05 0.00893012 1.57609e-07 272.087 
-0.81 -0.37 -3.24042 1.68497 0.0091479 0.00872687 -3.43014e-05 0.00895018 1.57958e-07 272.095 
-0.89 -0.35 -1.94751 2.44956 0.00911834 0.00872335 -5.51755e-05 0.00892575 1.57553e-07 272.049 
-0.79 -0.37 -3.59843 1.97381 0.00914818 0.00873496 -3.54204e-05 0.00896047 1.58282e-07 271.85 
-0.87 -0.35 -2.35668 2.34669 0.00913403 0.00871847 -5.60867e-05 0.00893715 1.57754e-07 272.051 
-0.77 -0.37 -3.86949 1.97809 0.0091581 0.00877146 -2.95648e-05 0.0089752 1.58308e-07 272.253 
-0.85 -0.35 -2.71304 2.54938 0.00914402 0.00871952 -5.32176e-05 0.00893661 1.57875e-07 271.825 
-0.83 -0.35 -3.05329 2.14624 0.00914457 0.00871429 -4.69421e-05 0.00893512 1.57856e-07 271.813 
-0.81 -0.35 -3.44761 2.09876 0.00915342 0.00872731 -4.77029e-05 0.00895391 1.58044e-07 272.059 
-0.79 -0.35 -3.77843 2.23725 0.00917009 0.0087356 -4.3712e-05 0.00896382 1.58357e-07 271.824 
-0.77 -0.35 -3.95618 2.27111 0.00917805 0.00875615 -3.85603e-05 0.00897642 1.58341e-07 272.233 
-0.75 -0.35 -4.22531 2.24577 0.00919066 0.00878011 -2.82821e-05 0.00899474 1.58718e-07 272.139 
-0.75 -0.49 -2.7581 0.207973 0.00907797 0.0088004 2.27509e-05 0.00894148 1.57645e-07 272.37 
-0.75 -0.43 -3.88269 0.714412 0.00914412 0.00879171 1.15656e-06 0.00897689 1.5822e-07 272.455 
-0.75 -0.39 -4.40277 1.39746 0.00915459 0.00878419 -2.36882e-05 0.00898285 1.58453e-07 272.235 
-0.75 -0.37 -4.15656 1.89126 0.0091609 0.00877747 -2.01973e-05 0.00897893 1.58401e-07 272.205 
-0.77 -0.33 -3.92216 2.52756 0.00916577 0.00874887 -4.7899e-05 0.00896426 1.58402e-07 271.759 
-0.73 -0.49 -3.09164 0.177344 0.00908369 0.00881549 2.52802e-05 0.00895736 1.5794e-07 272.345 
-0.73 -0.47 -3.31948 0.274997 0.00910712 0.00880624 2.33301e-05 0.0089711 1.58154e-07 272.392 
-0.73 -0.45 -3.84279 0.41389 0.00912506 0.00880592 1.38583e-05 0.00897539 1.58291e-07 272.288 
-0.73 -0.43 -4.31005 0.901657 0.00915211 0.00880563 1.53996e-06 0.00898858 1.58439e-07 272.433 
-0.73 -0.41 -4.37196 1.17576 0.00916957 0.00880499 -7.45593e-06 0.00899711 1.58678e-07 272.281 
-0.73 -0.39 -4.47436 1.49402 0.0091608 0.00879624 -9.3258e-06 0.0089858 1.58531e-07 272.19 
-0.73 -0.37 -4.68051 1.77695 0.00916473 0.00878187 -2.4264e-05 0.00898066 1.58529e-07 272.037 
-0.73 -0.35 -4.6071 2.04824 0.00918844 0.00878327 -2.39122e-05 0.00898918 1.58639e-07 272.108 
-0.81 -0.29 -3.30458 3.32055 0.00915725 0.00871548 -6.74032e-05 0.00894364 1.58029e-07 271.774 
-0.89 -0.27 -1.82587 3.84445 0.00912869 0.00869999 -8.93048e-05 0.00893053 1.57695e-07 271.951 
-0.97 -0.25 -0.508534 3.78587 0.00909295 0.00872055 -0.000111379 0.00891775 1.57634e-07 271.666 
-0.83 -0.29 -2.92275 3.51164 0.00914719 0.00871826 -7.0342e-05 0.00894267 1.57842e-07 272.067 
-0.91 -0.27 -1.42937 3.89287 0.009127 0.00870508 -8.89345e-05 0.00892956 1.57671e-07 271.962 
-0.99 -0.25 -0.231726 3.82682 0.00909138 0.00875569 -0.000119069 0.00893745 1.57963e-07 271.699 
-0.79 -0.29 -3.58778 3.18636 0.00917037 0.00872593 -6.09723e-05 0.00895521 1.58194e-07 271.841 
-0.87 -0.27 -2.35334 3.94924 0.00913507 0.00870815 -7.15878e-05 0.0089391 1.57879e-07 271.895 
-0.95 -0.25 -0.761152 3.79764 0.00910358 0.00871814 -0.000105164 0.00892789 1.57799e-07 271.69 
-0.77 -0.29 -3.94326 3.28596 0.00918156 0.00874044 -5.18022e-05 0.00897133 1.58459e-07 271.875 
-0.85 -0.27 -2.67184 3.7168 0.00914495 0.00871116 -7.29883e-05 0.00893924 1.57891e-07 271.877 
-0.93 -0.25 -1.17552 4.10847 0.00910355 0.00870824 -0.000109024 0.00892248 1.57607e-07 271.858 
-0.75 -0.29 -4.42599 3.17447 0.00918586 0.00876366 -5.62578e-05 0.00898824 1.58678e-07 272.013 
-0.83 -0.27 -3.05831 3.69511 0.00915439 0.00872313 -7.23292e-05 0.00895074 1.58015e-07 272.013 
-0.91 -0.25 -1.55285 4.25581 0.00911391 0.00869473 -0.000100064 0.00891887 1.5756e-07 271.827 
-0.99 -0.23 -0.0615899 4.11425 0.00906069 0.00874514 -0.00012775 0.00891878 1.57637e-07 271.693 
-0.81 -0.27 -3.46777 3.72998 0.00915761 0.00871257 -8.04697e-05 0.008945 1.58033e-07 271.808 
-0.89 -0.25 -2.0079 4.19854 0.00912426 0.00869231 -8.70887e-05 0.00892881 1.57633e-07 272.006 
-0.97 -0.23 -0.375038 4.05494 0.00908132 0.00872666 -0.000121353 0.008917 1.57647e-07 271.62 
-0.79 -0.27 -4.06512 3.62806 0.00916894 0.00871313 -7.10817e-05 0.00894542 1.58247e-07 271.454 
-0.87 -0.25 -2.16046 4.36014 0.00913691 0.00870292 -8.7331e-05 0.00893954 1.5796e-07 271.769 
-0.95 -0.23 -0.874916 4.28391 0.0090906 0.00870808 -0.000120975 0.00891412 1.57546e-07 271.708 
-0.77 -0.27 -4.35008 3.61274 0.0091757 0.00874091 -6.14007e-05 0.00897001 1.58553e-07 271.675 
-0.85 -0.25 -2.66066 4.11923 0.00915275 0.00871384 -8.66635e-05 0.00894585 1.57917e-07 272.034 
-0.93 -0.23 -1.19986 4.44998 0.00910505 0.008707 -0.000112489 0.00892321 1.57545e-07 271.986 
-0.83 -0.25 -3.09942 4.0674 0.00916111 0.00871124 -8.18499e-05 0.00893936 1.58063e-07 271.585 
-0.91 -0.23 -1.52608 4.49442 0.00910795 0.00868104 -0.000103092 0.00891822 1.57445e-07 272.007 
-0.99 -0.21 -0.0279396 4.2427 0.00909118 0.00874486 -0.000133725 0.00893165 1.57894e-07 271.642 
-0.81 -0.25 -3.34683 4.17198 0.00916459 0.00872522 -7.54324e-05 0.00895332 1.58229e-07 271.723 
-0.89 -0.23 -1.88384 4.78415 0.00911997 0.00869058 -0.000102344 0.00892357 1.57586e-07 271.926 
-0.97 -0.21 -0.205501 4.42492 0.00909589 0.00870852 -0.000131927 0.00891446 1.5763e-07 271.574 
-0.79 -0.25 -3.80719 4.20927 0.00915217 0.00870285 -7.81266e-05 0.00893735 1.58096e-07 271.467 
-0.87 -0.23 -2.45742 4.52681 0.00913422 0.00870143 -0.000104388 0.00893084 1.57798e-07 271.782 
-0.95 -0.21 -0.536328 4.69368 0.00910177 0.00871029 -0.000124479 0.00892208 1.57562e-07 271.922 
-0.77 -0.25 -4.31667 3.82557 0.00916163 0.00873454 -7.84032e-05 0.0089548 1.58279e-07 271.684 
-0.85 -0.23 -2.63639 4.64821 0.00913807 0.00870924 -9.08812e-05 0.00893168 1.57791e-07 271.82 
-0.93 -0.21 -1.11397 4.85153 0.00910124 0.00869302 -0.000119691 0.00891354 1.57607e-07 271.585 
-0.83 -0.23 -3.08182 4.45797 0.00913289 0.00870097 -8.4632e-05 0.0089248 1.57773e-07 271.642 
-0.91 -0.21 -1.44576 4.79887 0.00911366 0.00868114 -0.000115712 0.0089168 1.57556e-07 271.771 
-0.99 -0.19 -0.203046 4.45128 0.00907734 0.00873495 -0.000149505 0.00892163 1.57654e-07 271.749 
-0.81 -0.23 -3.54575 4.45452 0.00914272 0.00871615 -8.12463e-05 0.008943 1.57996e-07 271.811 
-0.89 -0.21 -1.77911 5.2416 0.00912509 0.00869492 -0.00011343 0.00893234 1.57685e-07 272.022 
-0.97 -0.19 -0.554178 4.75095 0.00908664 0.00870159 -0.000137641 0.00890695 1.57503e-07 271.563 
-0.79 -0.23 -3.77265 4.61248 0.00916428 0.00871446 -7.98281e-05 0.0089526 1.58201e-07 271.751 
-0.87 -0.21 -2.14213 5.0027 0.00912742 0.00868373 -0.000110388 0.00892172 1.57788e-07 271.522 
-0.95 -0.19 -0.820962 5.01248 0.00909947 0.00870746 -0.000130455 0.00891361 1.5753e-07 271.719 
-0.77 -0.23 -4.13449 4.31481 0.00916906 0.00873529 -9.04405e-05 0.00896242 1.58371e-07 271.756 
-0.85 -0.21 -2.74955 4.95643 0.00913765 0.0086958 -9.47772e-05 0.00893174 1.57787e-07 271.828 
-0.93 -0.19 -0.885029 5.24082 0.00910919 0.00868973 -0.000124745 0.00891643 1.57581e-07 271.718 
-0.75 -0.23 -4.639 4.03259 0.00917734 0.00875118 -8.64679e-05 0.00897411 1.58482e-07 271.92 
-0.83 -0.21 -3.12811 4.80561 0.00915547 0.00870523 -9.20671e-05 0.00894209 1.57881e-07 271.982 
-0.91 -0.19 -1.3742 5.28081 0.0091074 0.00867355 -0.000123424 0.00890639 1.5743e-07 271.671 
-0.81 -0.21 -3.41068 4.79749 0.00915768 0.00871373 -8.74764e-05 0.00895312 1.58237e-07 271.705 
-0.89 -0.19 -1.8995 5.60076 0.00911385 0.00868914 -0.000116379 0.00891948 1.57539e-07 271.883 
-0.79 -0.21 -3.75228 4.9943 0.00915247 0.00871465 -9.30948e-05 0.00894748 1.5823e-07 271.545 
-0.87 -0.19 -2.33867 5.42007 0.00911513 0.00868191 -0.000108245 0.00891605 1.57629e-07 271.623 
-0.77 -0.21 -4.23033 4.80236 0.00916392 0.00874002 -9.41505e-05 0.00896229 1.58394e-07 271.713 
-0.85 -0.19 -2.59558 5.3858 0.00911905 0.00868379 -0.000112574 0.00891967 1.57694e-07 271.621 
-0.75 -0.21 -4.66878 4.4011 0.00916538 0.0087432 -9.38185e-05 0.00896695 1.58458e-07 271.744 
-0.83 -0.19 -2.92855 5.1608 0.00912086 0.00870161 -0.000103713 0.00892667 1.57757e-07 271.726 
-0.81 -0.19 -3.29197 5.17757 0.00914229 0.00870197 -9.77706e-05 0.00893436 1.5794e-07 271.646 
-0.79 -0.19 -3.85282 5.31 0.00916136 0.00872995 -9.82366e-05 0.0089611 1.58301e-07 271.837 
-0.77 -0.19 -4.14187 5.32762 0.00916841 0.00873607 -0.00010259 0.00896629 1.58456e-07 271.728 
-0.99 -0.33 -0.125662 2.46296 0.0090987 0.00877443 -8.53588e-05 0.00894679 1.57973e-07 271.967 
-0.97 -0.33 -0.439095 2.4999 0.00911328 0.00874878 -8.10677e-05 0.0089415 1.57859e-07 272.001 
-0.91 -0.33 -1.68876 2.81712 0.00914658 0.0087263 -6.44028e-05 0.00893809 1.57783e-07 272.029 
-0.99 -0.31 -0.167825 2.80466 0.00908502 0.00876243 -9.50806e-05 0.00893576 1.57788e-07 271.95 
-0.97 -0.31 -0.379664 2.76162 0.0090948 0.00874541 -8.73879e-05 0.00893149 1.57914e-07 271.603 
-0.87 -0.33 -2.28075 2.79362 0.00915089 0.00872435 -6.27098e-05 0.00894729 1.57955e-07 272.013 
-0.95 -0.31 -0.903312 3.09215 0.00910347 0.00872675 -8.55741e-05 0.00892774 1.57617e-07 272 
-0.85 -0.33 -2.42056 2.67707 0.00914246 0.00870847 -5.55237e-05 0.00893614 1.57662e-07 272.178 
-0.93 -0.31 -1.22641 3.08697 0.0091224 0.00873228 -8.35145e-05 0.00893894 1.57786e-07 272.049 
-0.91 -0.31 -1.49745 3.07456 0.0091358 0.00871519 -7.10833e-05 0.00894221 1.57706e-07 272.286 
-0.99 -0.29 -0.159808 3.089 0.0090804 0.00876336 -0.000102192 0.00893779 1.5788e-07 271.853 
-0.81 -0.33 -3.43403 2.52249 0.0091578 0.00872529 -5.13044e-05 0.00895612 1.5814e-07 271.961 
-0.89 -0.31 -1.77684 3.04591 0.00913974 0.00871842 -6.15447e-05 0.00894502 1.57852e-07 272.121 
-0.97 -0.29 -0.52683 3.14858 0.00909053 0.00873239 -9.90963e-05 0.00892396 1.57608e-07 271.9 
-0.87 -0.31 -2.17556 3.07721 0.00914467 0.00872207 -6.20529e-05 0.00894081 1.57926e-07 271.865 
-0.95 -0.29 -0.753697 3.38345 0.00910507 0.00872537 -9.71788e-05 0.00892884 1.57611e-07 272.045 
-0.85 -0.31 -2.53151 2.85936 0.00914929 0.00870666 -6.04678e-05 0.00893985 1.57861e-07 271.948 
-0.93 -0.29 -1.10048 3.28648 0.00910867 0.00872503 -8.85878e-05 0.00892568 1.57546e-07 272.06 
-0.83 -0.31 -2.80309 3.2045 0.00915624 0.00871909 -5.59466e-05 0.00895077 1.57985e-07 272.067 
-0.91 -0.29 -1.28337 3.51477 0.00910546 0.00870195 -8.19254e-05 0.00891324 1.57428e-07 271.885 
-0.99 -0.27 -0.0874889 3.42797 0.00909229 0.00875793 -0.000113123 0.00894151 1.58048e-07 271.677 
-0.81 -0.31 -3.14429 2.97978 0.00915812 0.00871797 -5.93716e-05 0.00895527 1.5811e-07 271.988 
-0.89 -0.29 -1.68098 3.46456 0.00912164 0.00871338 -7.65152e-05 0.00892948 1.57626e-07 272.037 
-0.97 -0.27 -0.519662 3.47165 0.00909646 0.00872975 -0.000108822 0.00892955 1.57689e-07 271.931 
-0.79 -0.31 -3.63621 2.73481 0.00916167 0.00873253 -5.48924e-05 0.00895681 1.58277e-07 271.747 
-0.87 -0.29 -2.1011 3.46079 0.00913491 0.00871601 -6.21397e-05 0.00893789 1.57896e-07 271.829 
-0.95 -0.27 -0.706211 3.64217 0.00909895 0.00871867 -0.000101845 0.00892399 1.57538e-07 272.021 
-0.77 -0.31 -4.14559 2.86915 0.00916226 0.00874107 -5.11498e-05 0.0089544 1.58267e-07 271.692 
-0.85 -0.29 -2.64356 3.31139 0.00914121 0.00870668 -6.47985e-05 0.00893196 1.57798e-07 271.817 
-0.93 -0.27 -1.00174 3.60008 0.00911003 0.00871141 -9.37341e-05 0.00891963 1.57327e-07 272.253 
-0.95 -0.33 -0.742377 2.56785 0.00912191 0.00872801 -7.09011e-05 0.00893718 1.57813e-07 271.95 
-0.93 -0.33 -1.15219 2.7181 0.00913442 0.0087383 -6.49144e-05 0.0089419 1.57846e-07 272.036 
-0.89 -0.33 -2.1546 2.70497 0.00915409 0.00872167 -5.7894e-05 0.00894298 1.57829e-07 272.097 
-0.83 -0.33 -2.8583 2.74894 0.00914734 0.00871205 -5.61688e-05 0.00894489 1.57898e-07 272.038 
-0.75 -0.31 -4.4497 2.81414 0.0091683 0.00876044 -4.75167e-05 0.00897806 1.58451e-07 272.093 
-0.75 -0.27 -4.53698 3.65327 0.00919254 0.0087633 -6.51804e-05 0.00898669 1.58727e-07 271.881 
-0.75 -0.25 -4.5324 3.78257 0.0091766 0.00876243 -7.0926e-05 0.00897311 1.58489e-07 271.879 
-0.75 -0.19 -4.45188 4.77448 0.00916521 0.0087383 -9.49088e-05 0.00896541 1.58454e-07 271.704 
-0.79 -0.33 -3.64739 2.3094 0.00915779 0.00873599 -5.21945e-05 0.00895864 1.58275e-07 271.807 
-0.75 -0.33 -4.32124 2.55153 0.00917072 0.00876595 -3.66989e-05 0.0089781 1.5859e-07 271.856 
-0.81 -0.17 -3.57346 5.61865 0.00912639 0.00869273 -0.000113828 0.00892036 1.57711e-07 271.614 
-0.79 -0.17 -3.88715 5.77662 0.00913885 0.00873277 -0.000112074 0.00895167 1.58143e-07 271.822 
-0.75 -0.17 -4.51012 5.3964 0.00916224 0.0087407 -0.000104116 0.00896339 1.58271e-07 271.958 
-0.73 -0.31 -4.79662 2.91187 0.00918763 0.00877873 -4.78732e-05 0.00899412 1.5876e-07 272.049 
-0.73 -0.29 -4.73743 3.22515 0.00918465 0.00877212 -5.61817e-05 0.00899107 1.58753e-07 271.969 
-0.73 -0.27 -4.93895 3.38691 0.0092022 0.00877922 -6.63345e-05 0.00900077 1.58912e-07 271.991 
-0.73 -0.25 -4.71462 3.78047 0.00918416 0.00877218 -6.77325e-05 0.00898498 1.58797e-07 271.711 
-0.73 -0.23 -4.93402 4.10867 0.00918658 0.00877277 -7.51501e-05 0.0089883 1.58878e-07 271.671 
-0.73 -0.21 -4.91009 4.34072 0.00917997 0.00876874 -9.34085e-05 0.00898327 1.58621e-07 271.959 
-0.73 -0.19 -4.95128 4.74988 0.00916675 0.00877595 -9.98708e-05 0.00897978 1.5865e-07 271.803 
-0.79 -0.05 -3.28078 7.67889 0.00905988 0.00871125 -0.000152339 0.00889957 1.5749e-07 271.361 
-0.87 -0.03 -2.23379 8.35494 0.00900481 0.00862971 -0.000178441 0.00883943 1.56399e-07 271.406 
-0.83 -0.05 -2.72022 7.97296 0.00903986 0.00867155 -0.000154698 0.00887827 1.57026e-07 271.51 
-0.91 -0.03 -1.75539 8.28385 0.00899315 0.00862476 -0.000188361 0.00883183 1.56219e-07 271.486 
-0.81 -0.05 -2.91251 7.7261 0.00905477 0.00869861 -0.000145731 0.00889518 1.57344e-07 271.479 
-0.89 -0.03 -1.90171 8.462 0.00899762 0.00863227 -0.000178484 0.00883523 1.56338e-07 271.384 
-0.77 -0.05 -3.6562 7.2573 0.00907125 0.00872897 -0.000153778 0.00891568 1.57662e-07 271.555 
-0.85 -0.03 -2.52803 8.1873 0.00901021 0.00864758 -0.000175784 0.00885276 1.56625e-07 271.424 
-0.75 -0.05 -3.8939 7.05734 0.00907783 0.00875549 -0.000160958 0.00892424 1.57742e-07 271.678 
-0.83 -0.03 -2.75553 8.32974 0.00902401 0.00866505 -0.000162026 0.00886601 1.56917e-07 271.324 
-0.81 -0.03 -3.17172 7.97268 0.00903364 0.00869408 -0.000158779 0.00888026 1.5711e-07 271.426 
-0.79 -0.03 -3.23073 8.04884 0.00904878 0.00871415 -0.000158008 0.00889527 1.57416e-07 271.357 
-0.77 -0.03 -3.60623 7.51597 0.00905915 0.00873451 -0.000162237 0.00890635 1.57535e-07 271.489 
-0.95 -0.17 -0.785227 5.20474 0.00907762 0.00869075 -0.000145056 0.00889604 1.57331e-07 271.526 
-0.99 -0.15 -0.117372 4.93894 0.00903112 0.00870706 -0.000175337 0.00888896 1.57181e-07 271.57 
-0.89 -0.17 -1.96834 5.84041 0.00910332 0.00867376 -0.000122275 0.00890582 1.57298e-07 271.882 
-0.97 -0.15 -0.378994 5.52404 0.00904948 0.00869897 -0.000166045 0.00888982 1.57194e-07 271.573 
-0.95 -0.15 -0.876158 5.69534 0.00906151 0.0086753 -0.000154354 0.00888314 1.57145e-07 271.454 
-0.93 -0.15 -1.27611 5.89979 0.00907131 0.00866763 -0.000140112 0.00888668 1.57273e-07 271.341 
-0.83 -0.17 -3.08324 5.58478 0.00912477 0.00870611 -0.00010883 0.00892935 1.57749e-07 271.822 
-0.91 -0.15 -1.53677 6.21783 0.00909119 0.00867836 -0.000137245 0.00890262 1.5732e-07 271.747 
-0.99 -0.13 -0.193146 5.27895 0.00904568 0.00870758 -0.000187754 0.00889077 1.57255e-07 271.497 
-0.89 -0.15 -1.77926 6.22508 0.00909193 0.00866083 -0.000129561 0.00889285 1.57205e-07 271.647 
-0.97 -0.13 -0.482292 5.91054 0.0090542 0.008681 -0.000172546 0.00888608 1.5722e-07 271.414 
-0.87 -0.15 -2.38131 6.0983 0.00909559 0.008682 -0.000123747 0.00890863 1.57343e-07 271.89 
-0.95 -0.13 -0.878299 6.09744 0.00906334 0.00866395 -0.000164659 0.00887977 1.57124e-07 271.388 
-0.77 -0.17 -4.14537 5.33412 0.00915274 0.00872764 -0.000106141 0.00895714 1.58268e-07 271.773 
-0.85 -0.15 -2.67149 6.24126 0.00910449 0.00867698 -0.000116089 0.0089076 1.5751e-07 271.571 
-0.93 -0.13 -1.1402 6.20095 0.00907767 0.00866792 -0.000159257 0.00889192 1.57142e-07 271.728 
-0.83 -0.15 -3.00582 5.95718 0.0091187 0.00869948 -0.000120329 0.00892341 1.57729e-07 271.675 
-0.91 -0.13 -1.66331 6.55274 0.00907867 0.00866026 -0.000149187 0.00889216 1.57246e-07 271.555 
-0.99 -0.11 -0.122582 5.55175 0.0090436 0.00869592 -0.000186854 0.00888467 1.5703e-07 271.7 
-0.81 -0.15 -3.39256 6.13313 0.00912671 0.00870578 -0.000118668 0.00893066 1.57805e-07 271.764 
-0.89 -0.13 -1.99121 6.59558 0.00908854 0.00866143 -0.000134541 0.0088924 1.57307e-07 271.458 
-0.97 -0.11 -0.506783 6.27207 0.00903723 0.00866866 -0.000181402 0.00887496 1.56941e-07 271.557 
-0.79 -0.15 -3.88617 5.94412 0.00912855 0.0087207 -0.000122134 0.00894296 1.5806e-07 271.7 
-0.87 -0.13 -2.35261 6.6027 0.00909813 0.00866614 -0.000130833 0.00890114 1.57406e-07 271.553 
-0.95 -0.11 -0.777392 6.41685 0.00904529 0.00866352 -0.000173386 0.00887275 1.57056e-07 271.291 
-0.77 -0.15 -4.14129 5.73668 0.00913302 0.00872536 -0.000113749 0.00894515 1.58258e-07 271.427 
-0.85 -0.13 -2.69768 6.36863 0.00911531 0.00868329 -0.000125916 0.00891076 1.57551e-07 271.596 
-0.93 -0.11 -1.23806 6.71562 0.00905555 0.00865768 -0.000167448 0.00887387 1.5708e-07 271.283 
-0.75 -0.15 -4.44273 5.64816 0.00914215 0.00874144 -0.000110797 0.00895689 1.5836e-07 271.607 
-0.83 -0.13 -3.04563 6.47175 0.00912186 0.00869422 -0.00012911 0.0089204 1.57494e-07 271.988 
-0.91 -0.11 -1.49824 6.91975 0.00905946 0.00864785 -0.000156332 0.00887471 1.57044e-07 271.371 
-0.99 -0.09 -0.105615 5.8243 0.00900108 0.00868338 -0.000199706 0.00885734 1.56692e-07 271.448 
-0.81 -0.13 -3.56934 6.44106 0.00911716 0.00870444 -0.000122229 0.00892608 1.57908e-07 271.448 
-0.89 -0.11 -1.82463 6.96094 0.00907366 0.00865406 -0.000144787 0.00888263 1.57344e-07 271.095 
-0.97 -0.09 -0.369933 6.73676 0.00902595 0.00865992 -0.000188553 0.0088644 1.56817e-07 271.447 
-0.79 -0.13 -3.66386 6.40914 0.00912271 0.00871819 -0.000120622 0.00893553 1.57898e-07 271.753 
-0.87 -0.11 -2.21913 7.01726 0.00908473 0.00866349 -0.000144324 0.00889636 1.57413e-07 271.396 
-0.95 -0.09 -0.805465 6.7695 0.00903797 0.00865832 -0.000179112 0.00887228 1.5692e-07 271.51 
-0.77 -0.13 -4.07581 6.04977 0.0091236 0.00871987 -0.00011999 0.00893313 1.57968e-07 271.559 
-0.85 -0.11 -2.6602 6.80327 0.00908971 0.00868027 -0.000134649 0.00889952 1.57532e-07 271.286 
-0.93 -0.09 -1.07375 6.90196 0.00903993 0.00864874 -0.000175031 0.00886586 1.57099e-07 271.004 
-0.83 -0.11 -3.12895 6.99212 0.00908909 0.00868314 -0.000127211 0.00890386 1.57515e-07 271.448 
-0.91 -0.09 -1.32653 7.28438 0.00904147 0.00863475 -0.000158417 0.00885834 1.56873e-07 271.166 
-0.99 -0.07 -0.312964 6.21829 0.00900198 0.00867535 -0.000205779 0.00885721 1.56633e-07 271.547 
-0.81 -0.11 -3.42178 6.56132 0.00910286 0.00870725 -0.000126717 0.00891675 1.57551e-07 271.779 
-0.89 -0.09 -1.85002 7.41166 0.00904657 0.00865025 -0.000159355 0.00887014 1.57102e-07 271.132 
-0.97 -0.07 -0.539761 6.91055 0.00899466 0.0086485 -0.000204046 0.00884338 1.56422e-07 271.489 
-0.79 -0.11 -3.64008 6.69838 0.00910984 0.00871348 -0.00012867 0.00892723 1.57912e-07 271.476 
-0.87 -0.09 -2.17401 7.34594 0.00906133 0.00865592 -0.000153931 0.00888131 1.57315e-07 271.106 
-0.95 -0.07 -0.735535 7.0413 0.00899984 0.00864989 -0.000188598 0.00884621 1.56484e-07 271.468 
-0.77 -0.11 -3.98504 6.31094 0.00912411 0.0087189 -0.000131697 0.0089343 1.57973e-07 271.586 
-0.85 -0.09 -2.52063 7.23803 0.00906978 0.00866996 -0.000144148 0.00888635 1.573e-07 271.284 
-0.93 -0.07 -1.11923 7.31576 0.00901107 0.00863306 -0.00017838 0.00884634 1.56683e-07 271.127 
-0.75 -0.11 -4.42319 6.04745 0.00913665 0.00875081 -0.000131292 0.00895296 1.58275e-07 271.634 
-0.83 -0.09 -2.80159 7.21485 0.00908641 0.00867989 -0.000139812 0.00889995 1.57382e-07 271.558 
-0.91 -0.07 -1.53167 7.6483 0.00902833 0.00863077 -0.000172023 0.00885097 1.56662e-07 271.305 
-0.99 -0.05 -0.0329974 6.62789 0.00898043 0.00866455 -0.000216157 0.00883659 1.56347e-07 271.41 
-0.81 -0.09 -3.24153 7.05966 0.00909685 0.00871061 -0.000137859 0.00891532 1.57725e-07 271.435 
-0.89 -0.07 -1.80878 7.73057 0.00904226 0.00864938 -0.000172533 0.00886722 1.56956e-07 271.294 
-0.97 -0.05 -0.569766 7.08987 0.00899953 0.00864469 -0.000207688 0.00884389 1.56482e-07 271.4 
-0.79 -0.09 -3.66216 6.88619 0.00909918 0.00871682 -0.000133467 0.00892313 1.57795e-07 271.554 
-0.87 -0.07 -2.21261 7.81051 0.00904192 0.00864229 -0.000157236 0.00886258 1.56796e-07 271.428 
-0.95 -0.05 -0.775956 7.41921 0.0090053 0.00863756 -0.000198128 0.00884077 1.56392e-07 271.46 
-0.77 -0.09 -3.90537 6.77278 0.00909552 0.00871891 -0.000132649 0.00892509 1.57838e-07 271.538 
-0.85 -0.07 -2.55691 7.49656 0.00904921 0.00866044 -0.000153988 0.00887713 1.56998e-07 271.524 
-0.93 -0.05 -1.17158 7.72508 0.00900483 0.00862181 -0.000181506 0.00883704 1.56418e-07 271.3 
-0.75 -0.09 -4.21934 6.50081 0.00909184 0.00874603 -0.000140428 0.00893347 1.57963e-07 271.579 
-0.83 -0.07 -2.90865 7.67848 0.00905609 0.00868257 -0.000144606 0.00888266 1.57055e-07 271.596 
-0.91 -0.05 -1.45707 7.99664 0.00900681 0.00863049 -0.000179826 0.0088392 1.56456e-07 271.302 
-0.99 -0.03 -0.185741 6.9456 0.00895266 0.00865513 -0.000229784 0.00881689 1.55954e-07 271.487 
-0.81 -0.07 -3.21527 7.57468 0.00905464 0.00869981 -0.000148183 0.00889497 1.57318e-07 271.516 
-0.89 -0.05 -1.81679 8.07938 0.00900799 0.00863722 -0.000175366 0.00884416 1.56601e-07 271.202 
-0.97 -0.03 -0.428391 7.51524 0.00895903 0.00862774 -0.000212079 0.00881556 1.56127e-07 271.145 