ITEM: TIMESTEP
820000
ITEM: NUMBER OF CELLS
5000
ITEM: BOX BOUNDS ss ss pp
-1 1
-0.5 0.5
-0.5 0.5
ITEM: CELLS xc yc f_U[*] f_V[*] f_Tau[1] f_Tau[2] f_Tau[3] f_Press[*] f_Mrho[*] f_Ttra[*] 
-0.99 -0.49 0.011693 0.112521 0.00896529 0.00874211 -1.13131e-05 0.00887458 1.56877e-07 271.655 
-0.97 -0.49 -0.0587666 0.156852 0.0089588 0.00878479 -1.93418e-05 0.00888417 1.56629e-07 272.38 
-0.95 -0.49 -0.578587 -0.13342 0.00896864 0.0087564 -4.25362e-05 0.00888803 1.5724e-07 271.44 
-0.93 -0.49 -0.632476 0.43381 0.00897451 0.0087638 -4.43568e-05 0.00889057 1.57109e-07 271.743 
-0.91 -0.49 -1.15975 0.0452674 0.00897389 0.00871006 -2.67107e-05 0.00886495 1.56951e-07 271.234 
-0.99 -0.47 -0.0746656 0.0636505 0.00901687 0.00875131 -1.65274e-05 0.00889451 1.57095e-07 271.889 
-0.89 -0.49 -1.57097 0.346492 0.00901996 0.00870606 -2.64556e-05 0.00889185 1.56705e-07 272.483 
-0.97 -0.47 -0.227872 0.687682 0.00901 0.00879584 -2.88396e-05 0.00891668 1.57097e-07 272.563 
-0.87 -0.49 -1.82366 0.0712064 0.0090438 0.00880659 -6.80767e-06 0.00892586 1.57743e-07 271.726 
-0.95 -0.47 -0.903962 0.830033 0.00901735 0.00877737 -3.73908e-05 0.00891971 1.57432e-07 272.074 
-0.85 -0.49 -1.77404 0.258426 0.00906284 0.00881687 5.08524e-06 0.00893689 1.57791e-07 271.978 
-0.93 -0.47 -1.7325 0.66096 0.00901508 0.00874426 -3.25271e-05 0.00889289 1.56716e-07 272.496 
-0.83 -0.49 -1.93849 0.293733 0.00908363 0.0088294 1.71114e-05 0.00896691 1.58089e-07 272.377 
-0.91 -0.47 -1.58858 0.217757 0.00899706 0.00872437 -3.39522e-05 0.00888419 1.56905e-07 271.901 
-0.99 -0.45 -0.359629 0.455846 0.00902249 0.00876036 -3.74465e-05 0.00890978 1.57303e-07 271.995 
-0.81 -0.49 -2.23099 0.0519576 0.00907036 0.00878957 2.82941e-06 0.00892686 1.57369e-07 272.401 
-0.89 -0.47 -1.96332 0.713925 0.00898876 0.00870191 -6.32588e-05 0.0088641 1.56657e-07 271.716 
-0.97 -0.45 -0.559888 0.49785 0.00905297 0.00880012 -4.33657e-05 0.00894207 1.57349e-07 272.901 
-0.79 -0.49 -2.46116 -0.0726058 0.00907809 0.00875519 1.71613e-05 0.00892688 1.57742e-07 271.757 
-0.87 -0.47 -2.20906 0.245292 0.00901795 0.00876336 -3.66019e-05 0.0089235 1.57548e-07 271.989 
-0.95 -0.45 -0.471116 1.50714 0.00903727 0.00878364 -4.69169e-05 0.00893201 1.57295e-07 272.687 
-0.77 -0.49 -2.24278 -0.0879467 0.00907838 0.00878766 4.26856e-05 0.00893721 1.57397e-07 272.668 
-0.85 -0.47 -2.55075 0.184233 0.00905985 0.00882074 -2.37777e-05 0.00896828 1.57949e-07 272.661 
-0.93 -0.45 -0.843817 0.891894 0.00902593 0.00869161 -3.19691e-05 0.00889763 1.56999e-07 272.149 
-0.83 -0.47 -2.80818 0.278669 0.00907151 0.00880605 5.06862e-06 0.00895476 1.57915e-07 272.308 
-0.91 -0.45 -1.56932 0.698977 0.0090569 0.00877446 -1.98062e-05 0.00893895 1.57959e-07 271.751 
-0.99 -0.43 -0.424108 1.04737 0.00910083 0.00878527 -4.44867e-05 0.00896331 1.58094e-07 272.259 
-0.81 -0.47 -2.59377 0.148118 0.00908225 0.00880006 1.23267e-05 0.00894604 1.57682e-07 272.445 
-0.89 -0.45 -1.85859 0.729213 0.00905068 0.00870395 -6.07286e-05 0.0088987 1.57003e-07 272.176 
-0.97 -0.43 -0.815298 0.437318 0.00910949 0.00876937 -3.60871e-05 0.00895823 1.57789e-07 272.632 
-0.79 -0.47 -2.82616 0.244792 0.00908337 0.00871748 2.23314e-05 0.00891235 1.57302e-07 272.074 
-0.87 -0.45 -1.9069 0.632064 0.00905002 0.00875505 -4.51948e-05 0.00891231 1.57363e-07 271.969 
-0.95 -0.43 -0.822876 1.46278 0.00911585 0.00879712 -2.85636e-05 0.00896039 1.58076e-07 272.202 
-0.77 -0.47 -2.83973 -0.208066 0.00909261 0.00880012 2.65222e-05 0.00894605 1.57744e-07 272.338 
-0.85 -0.45 -2.58531 0.124 0.00904602 0.00878949 -4.24801e-05 0.00893995 1.57836e-07 271.994 
-0.93 -0.43 -0.895417 1.30893 0.00912902 0.00870845 -4.32763e-05 0.00893452 1.57538e-07 272.342 
-0.75 -0.47 -2.68996 0.327645 0.00909694 0.00880766 2.9801e-05 0.00895399 1.5753e-07 272.95 
-0.83 -0.45 -2.56941 0.531225 0.00906519 0.00877989 -2.79208e-05 0.00893237 1.57679e-07 272.034 
-0.91 -0.43 -1.28493 1.34916 0.00912915 0.00875126 -4.23771e-05 0.00893534 1.57556e-07 272.336 
-0.99 -0.41 -0.0727381 1.61266 0.00911222 0.00879688 -5.60304e-05 0.00897514 1.5836e-07 272.161 
-0.81 -0.45 -2.60085 0.386504 0.00909259 0.00877337 -1.13831e-05 0.00894741 1.57443e-07 272.9 
-0.89 -0.43 -1.70413 0.825742 0.00911876 0.00872565 -2.58722e-05 0.00892427 1.57578e-07 271.962 
-0.97 -0.41 -0.749638 0.981228 0.00911887 0.00876675 -5.80586e-05 0.00894554 1.57989e-07 271.901 
-0.79 -0.45 -2.83761 0.609159 0.00910251 0.00872647 2.33024e-05 0.00891609 1.57929e-07 271.109 
-0.87 -0.43 -1.75453 0.783342 0.00911461 0.00875783 -6.04941e-05 0.00894263 1.57742e-07 272.238 
-0.95 -0.41 -0.957593 1.34453 0.00913568 0.0087733 -2.16012e-05 0.0089476 1.58025e-07 271.902 
-0.77 -0.45 -3.39792 0.0399081 0.00912599 0.0087893 1.29953e-05 0.00894764 1.57824e-07 272.249 
-0.85 -0.43 -2.02766 0.849312 0.00911083 0.00878277 -3.4048e-05 0.00895598 1.5798e-07 272.234 
-0.93 -0.41 -1.42871 1.87497 0.00912682 0.00871797 -2.38919e-05 0.0089388 1.57836e-07 271.959 
-0.75 -0.45 -3.70325 0.582488 0.00913443 0.00881649 1.38334e-05 0.00897855 1.58463e-07 272.087 
-0.83 -0.43 -2.97772 1.0746 0.00909942 0.00877591 -3.76483e-05 0.008958 1.57759e-07 272.677 
-0.91 -0.41 -1.1898 1.22489 0.00913097 0.00875613 -3.72063e-05 0.00894847 1.57807e-07 272.303 
-0.99 -0.39 -0.269826 2.04628 0.00910042 0.00878051 -5.08544e-05 0.0089543 1.57925e-07 272.277 
-0.81 -0.43 -3.43479 0.239519 0.00909145 0.00873263 -8.67976e-06 0.00895164 1.57875e-07 272.282 
-0.89 -0.41 -1.50822 1.16396 0.00912776 0.00874566 -3.85688e-05 0.00894568 1.57532e-07 272.694 
-0.97 -0.39 -1.04147 1.74044 0.0090985 0.00878259 -3.09507e-05 0.00894946 1.57778e-07 272.384 
-0.79 -0.43 -2.97786 0.774722 0.00910816 0.00874066 -9.65977e-06 0.00894257 1.57719e-07 272.275 
-0.87 -0.41 -2.21085 0.879719 0.00911342 0.00874829 -2.6558e-05 0.00894215 1.57502e-07 272.638 
-0.95 -0.39 -1.24274 1.49629 0.00908593 0.00872625 -3.56859e-05 0.0089059 1.57132e-07 272.172 
-0.77 -0.43 -2.94757 0.836915 0.00913218 0.00876442 -3.18014e-06 0.0089711 1.57751e-07 273.089 
-0.85 -0.41 -2.18522 1.20077 0.00912411 0.00877637 -4.63508e-05 0.00895706 1.5801e-07 272.215 
-0.93 -0.39 -0.419838 1.84593 0.00911875 0.00874154 -2.25874e-05 0.00893021 1.57551e-07 272.189 
-0.83 -0.41 -2.22866 1.49566 0.00913582 0.00876191 -2.36065e-05 0.00896721 1.57934e-07 272.654 
-0.91 -0.39 -1.2289 1.49647 0.00909573 0.00873671 -3.9624e-05 0.00892174 1.57493e-07 272.031 
-0.99 -0.37 -0.206821 2.53426 0.00910785 0.00876675 -4.23726e-05 0.0089827 1.58883e-07 271.493 
-0.81 -0.41 -2.60725 1.02174 0.0091206 0.00873428 -1.29834e-05 0.00895627 1.58079e-07 272.072 
-0.89 -0.39 -1.06349 1.24534 0.0091048 0.00875568 -2.41247e-05 0.00895432 1.57802e-07 272.49 
-0.97 -0.37 -0.320587 2.01649 0.00912072 0.00877366 -4.34331e-05 0.00897493 1.58502e-07 271.911 
-0.79 -0.41 -3.19496 0.401485 0.00914686 0.00876298 -2.65063e-05 0.00895767 1.58089e-07 272.097 
-0.87 -0.39 -1.08791 1.2207 0.00912972 0.00877825 -5.64249e-05 0.00897037 1.57888e-07 272.829 
-0.95 -0.37 -0.592652 1.69638 0.00912348 0.00871682 -3.88573e-05 0.00891652 1.57566e-07 271.745 
-0.77 -0.41 -4.186 1.31452 0.00914669 0.00874257 -1.46154e-05 0.00895281 1.58018e-07 272.072 
-0.85 -0.39 -2.05318 1.41407 0.00914823 0.00876333 -5.54036e-05 0.00897792 1.58585e-07 271.859 
-0.93 -0.37 -1.21967 1.70157 0.00914254 0.00873562 -5.49904e-05 0.00895189 1.58194e-07 271.74 
-0.75 -0.41 -4.19366 1.78894 0.0091823 0.00879308 -4.47251e-06 0.00900329 1.5852e-07 272.739 
-0.83 -0.39 -2.32123 1.84235 0.00914337 0.00873373 -4.17718e-05 0.00896462 1.5825e-07 272.03 
-0.91 -0.37 -1.1159 1.63583 0.00916749 0.00874129 -2.90585e-05 0.00897283 1.58263e-07 272.258 
-0.99 -0.35 -0.280097 2.68572 0.00906655 0.00875275 -7.29116e-05 0.00894256 1.58355e-07 271.181 
-0.81 -0.39 -2.5285 1.24578 0.00917526 0.00874973 -1.77658e-05 0.00899061 1.58276e-07 272.775 
-0.89 -0.37 -1.29902 1.61617 0.0091751 0.00874625 -3.64448e-05 0.00896532 1.58222e-07 272.1 
-0.97 -0.35 -0.434302 2.14969 0.00908918 0.00876335 -6.08012e-05 0.00894119 1.58318e-07 271.204 
-0.79 -0.39 -3.54848 1.7875 0.00916179 0.00875749 -2.91456e-05 0.00897772 1.58252e-07 272.425 
-0.87 -0.37 -1.98396 2.09544 0.00918445 0.00879419 -5.15087e-05 0.00898158 1.5837e-07 272.34 
-0.95 -0.35 -0.617589 2.23902 0.0091145 0.00872406 -6.12533e-05 0.00892401 1.57963e-07 271.29 
-0.77 -0.39 -4.22491 1.4249 0.00916551 0.00874491 -3.18375e-05 0.00898016 1.5883e-07 271.507 
-0.85 -0.37 -2.23832 1.60559 0.00914978 0.00876078 -5.22176e-05 0.00896972 1.58675e-07 271.457 
-0.93 -0.35 -1.17562 2.09171 0.00912911 0.00872824 -6.02061e-05 0.0089376 1.58099e-07 271.47 
-0.83 -0.37 -2.43633 2.17684 0.00915672 0.00873847 -4.14588e-05 0.0089613 1.57992e-07 272.375 
-0.91 -0.35 -1.07268 1.80779 0.00912247 0.00873765 -5.36964e-05 0.00892363 1.57819e-07 271.527 
-0.81 -0.37 -3.03826 1.45093 0.00915573 0.00872825 -3.63227e-05 0.00896544 1.58348e-07 271.887 
-0.89 -0.35 -1.5692 2.16026 0.00914403 0.00875605 -6.19886e-05 0.00895115 1.58022e-07 272.013 
-0.79 -0.37 -3.63462 2.58473 0.00915853 0.00876343 -3.82702e-05 0.0089811 1.58489e-07 272.12 
-0.87 -0.35 -2.20399 2.23308 0.0091452 0.00878525 -4.9234e-05 0.00897628 1.58612e-07 271.762 
-0.77 -0.37 -3.89584 2.15175 0.00915264 0.00874783 -2.52826e-05 0.00897495 1.58686e-07 271.596 
-0.85 -0.35 -2.29451 2.37683 0.00918039 0.00875242 -5.93265e-05 0.00898619 1.58829e-07 271.691 
-0.83 -0.35 -2.91056 2.37797 0.00919358 0.00872523 -4.49804e-05 0.00898649 1.58985e-07 271.434 
-0.81 -0.35 -3.78773 2.25729 0.00919898 0.00872351 -4.48548e-05 0.00898336 1.58455e-07 272.247 
-0.79 -0.35 -3.9139 2.68377 0.00922591 0.00875718 -2.62771e-05 0.00898461 1.5864e-07 271.968 
-0.77 -0.35 -3.57184 2.65164 0.00922819 0.00876692 -3.26749e-05 0.00901077 1.58988e-07 272.163 
-0.75 -0.35 -3.99041 2.44299 0.00922219 0.00877098 -2.39817e-05 0.00901549 1.59236e-07 271.881 
-0.75 -0.49 -2.45385 0.117539 0.00906477 0.00879659 2.50931e-05 0.00892646 1.57207e-07 272.671 
-0.75 -0.43 -4.10784 0.743692 0.00914366 0.0088193 1.1804e-05 0.00898834 1.58418e-07 272.461 
-0.75 -0.39 -4.83889 1.85208 0.00916818 0.0087761 -1.31432e-05 0.0090016 1.58803e-07 272.202 
-0.75 -0.37 -4.14027 1.86625 0.00914875 0.00876094 -3.13827e-05 0.00896756 1.5824e-07 272.138 
-0.77 -0.33 -3.66064 2.52336 0.00917255 0.00874608 -4.27618e-05 0.00896375 1.58492e-07 271.589 
-0.73 -0.49 -2.55789 0.280447 0.00906643 0.00879555 1.09449e-05 0.00894327 1.5755e-07 272.589 
-0.73 -0.47 -3.18777 0.264376 0.00910965 0.00880544 1.37377e-05 0.00897386 1.58431e-07 272.001 
-0.73 -0.45 -3.77577 0.667049 0.00913686 0.00881463 9.92327e-06 0.0089717 1.58589e-07 271.665 
-0.73 -0.43 -4.924 1.49678 0.00913553 0.0088132 1.54017e-05 0.0089829 1.58414e-07 272.304 
-0.73 -0.41 -4.66081 1.56732 0.00918774 0.00882149 7.62508e-06 0.00901994 1.58859e-07 272.66 
-0.73 -0.39 -4.72012 1.92286 0.00918576 0.00880815 -6.57818e-06 0.0090087 1.58557e-07 272.839 
-0.73 -0.37 -4.52602 1.91233 0.00916955 0.00882119 -3.42089e-05 0.00900078 1.58915e-07 271.985 
-0.73 -0.35 -4.46977 2.26016 0.00919044 0.00881485 -8.0996e-06 0.00901038 1.58572e-07 272.864 
-0.81 -0.29 -3.30426 3.67704 0.00915215 0.0087042 -7.74987e-05 0.00893086 1.57746e-07 271.872 
-0.89 -0.27 -1.63828 3.54413 0.00909607 0.00871196 -8.84291e-05 0.0089019 1.5732e-07 271.724 
-0.97 -0.25 -0.481706 3.56031 0.00909516 0.00870717 -0.000103136 0.0089057 1.57353e-07 271.784 
-0.83 -0.29 -3.15285 3.24453 0.00912887 0.00871165 -8.38247e-05 0.00893102 1.57126e-07 272.95 
-0.91 -0.27 -1.49227 4.31309 0.00909375 0.00869231 -0.00010394 0.00889805 1.57374e-07 271.514 
-0.99 -0.25 -0.501663 3.71324 0.00907259 0.00871505 -0.00011112 0.00891292 1.57947e-07 270.981 
-0.79 -0.29 -3.56756 3.54333 0.00917306 0.0087359 -6.33617e-05 0.00895198 1.58276e-07 271.603 
-0.87 -0.27 -1.88799 3.81545 0.00912983 0.00878189 -8.69187e-05 0.00896024 1.58031e-07 272.275 
-0.95 -0.25 -0.398607 3.85004 0.00910207 0.00873979 -0.000107232 0.00893092 1.57888e-07 271.63 
-0.77 -0.29 -4.18144 3.13254 0.00918561 0.00874992 -5.02238e-05 0.00896846 1.58957e-07 270.936 
-0.85 -0.27 -1.94836 3.51156 0.00913738 0.00872658 -6.28222e-05 0.00893915 1.57711e-07 272.185 
-0.93 -0.25 -0.66706 3.84168 0.00909947 0.00869068 -9.19482e-05 0.00890592 1.57533e-07 271.48 
-0.75 -0.29 -4.86441 3.51707 0.0091856 0.00875756 -4.90326e-05 0.00899266 1.58712e-07 272.087 
-0.83 -0.27 -2.77298 3.56978 0.00917586 0.00875753 -6.01077e-05 0.00897422 1.58384e-07 272.092 
-0.91 -0.25 -0.957161 4.079 0.00911429 0.00871821 -9.75993e-05 0.0089187 1.57506e-07 271.916 
-0.99 -0.23 0.0483395 4.25003 0.00902485 0.00872027 -0.000128763 0.00889934 1.57152e-07 271.937 
-0.81 -0.27 -3.35724 4.01523 0.00915393 0.00869573 -9.28471e-05 0.00892109 1.57554e-07 271.906 
-0.89 -0.25 -1.22681 3.91604 0.00910262 0.00869571 -0.000118794 0.00890699 1.57382e-07 271.772 
-0.97 -0.23 -0.193001 3.14576 0.00905546 0.00872301 -0.000132139 0.00890342 1.57677e-07 271.155 
-0.79 -0.27 -3.87892 4.22469 0.00917682 0.00871828 -8.17435e-05 0.00893005 1.5792e-07 271.548 
-0.87 -0.25 -1.76169 4.47082 0.00914067 0.00875044 -9.13515e-05 0.00895774 1.57937e-07 272.361 
-0.95 -0.23 -0.560398 3.90196 0.00908217 0.00871756 -0.000122784 0.00891029 1.57654e-07 271.405 
-0.77 -0.27 -4.15226 3.53044 0.00917648 0.00872991 -4.85237e-05 0.00894813 1.58264e-07 271.507 
-0.85 -0.25 -2.37539 4.11095 0.00916414 0.00873845 -0.000104568 0.00894928 1.57879e-07 272.204 
-0.93 -0.23 -0.903803 4.09148 0.00910065 0.0086974 -0.00012272 0.00890829 1.57614e-07 271.412 
-0.83 -0.25 -3.27829 4.29509 0.00918048 0.00873751 -8.9431e-05 0.00894945 1.58236e-07 271.594 
-0.91 -0.23 -1.22593 4.71404 0.00911765 0.00870301 -0.000104616 0.00891997 1.57391e-07 272.153 
-0.99 -0.21 0.303568 3.527 0.00917308 0.00874518 -0.000119571 0.00897355 1.58423e-07 272.004 
-0.81 -0.25 -4.00487 4.13205 0.00917697 0.00871519 -6.94833e-05 0.00895667 1.58154e-07 271.954 
-0.89 -0.23 -1.87461 4.22059 0.00914829 0.00871365 -0.000118115 0.00895001 1.57877e-07 272.23 
-0.97 -0.21 0.432435 3.59866 0.0091497 0.00870915 -0.000125153 0.00895085 1.58333e-07 271.471 
-0.79 -0.25 -4.29646 4.5799 0.00915953 0.00868909 -7.9834e-05 0.00892978 1.5808e-07 271.266 
-0.87 -0.23 -2.12157 4.40916 0.0091696 0.00873102 -0.000133433 0.00895187 1.5838e-07 271.422 
-0.95 -0.21 -0.463952 4.49805 0.00911261 0.00869813 -0.000130121 0.00892087 1.57499e-07 271.994 
-0.77 -0.25 -4.40394 3.63084 0.00917711 0.00871755 -6.95379e-05 0.00895223 1.5819e-07 271.758 
-0.85 -0.23 -2.65671 4.96774 0.0091552 0.00874964 -9.64898e-05 0.00896197 1.58063e-07 272.272 
-0.93 -0.21 -0.913006 4.82537 0.00911144 0.00869362 -0.000124893 0.00890072 1.56972e-07 272.29 
-0.83 -0.23 -3.33225 4.80552 0.00913289 0.00870109 -9.52599e-05 0.00892796 1.57606e-07 272.025 
-0.91 -0.21 -0.969992 4.31336 0.00913174 0.00871199 -0.000136158 0.00892782 1.57508e-07 272.19 
-0.99 -0.19 -0.0207506 3.90379 0.00907354 0.00872565 -0.000141778 0.00890977 1.57423e-07 271.788 
-0.81 -0.23 -3.44342 4.34783 0.00917878 0.00871089 -9.28217e-05 0.0089587 1.58017e-07 272.253 
-0.89 -0.21 -1.43472 5.16255 0.00913964 0.00873455 -0.000131091 0.00896538 1.58074e-07 272.357 
-0.97 -0.19 -0.848747 4.02584 0.00912501 0.00871431 -0.000143284 0.0089181 1.58076e-07 270.917 
-0.79 -0.23 -3.35908 4.75263 0.00920642 0.0087021 -8.33589e-05 0.00895447 1.57892e-07 272.339 
-0.87 -0.21 -2.42258 5.02328 0.00912376 0.00867324 -0.000125974 0.00890452 1.57381e-07 271.699 
-0.95 -0.19 -0.7234 4.91864 0.00911938 0.00870987 -0.000107254 0.00891779 1.57691e-07 271.569 
-0.77 -0.23 -3.9446 4.31269 0.00920267 0.00872247 -8.74744e-05 0.00895933 1.58467e-07 271.499 
-0.85 -0.21 -3.43107 5.77348 0.00915525 0.00873832 -9.0651e-05 0.00895056 1.58035e-07 271.974 
-0.93 -0.19 -0.281812 4.78221 0.00913033 0.00869909 -0.000127919 0.00892027 1.57868e-07 271.34 
-0.75 -0.23 -4.44692 3.77722 0.00919227 0.00874411 -8.46736e-05 0.0089688 1.587e-07 271.385 
-0.83 -0.21 -3.82414 5.07274 0.00915238 0.00872047 -9.4416e-05 0.00894191 1.58094e-07 271.61 
-0.91 -0.19 -1.09368 5.28121 0.00912648 0.00870248 -0.000136983 0.00891358 1.57483e-07 271.8 
-0.81 -0.21 -4.23214 4.46675 0.00912023 0.00869158 -8.99308e-05 0.00892069 1.57677e-07 271.682 
-0.89 -0.19 -1.96426 5.38359 0.00912699 0.00872045 -0.000122118 0.0089385 1.57815e-07 271.987 
-0.79 -0.21 -4.43393 4.64004 0.00911173 0.00870306 -9.30046e-05 0.00891757 1.57667e-07 271.603 
-0.87 -0.19 -2.23624 5.6521 0.00912991 0.00868316 -0.00012071 0.0089127 1.57744e-07 271.324 
-0.77 -0.21 -4.02388 4.84763 0.00912865 0.00871305 -9.07469e-05 0.00894472 1.58211e-07 271.494 
-0.85 -0.19 -2.38086 5.842 0.00910999 0.0086771 -0.000122591 0.00889745 1.57914e-07 270.568 
-0.75 -0.21 -4.57697 4.63791 0.00915604 0.00874804 -9.59459e-05 0.00897962 1.58667e-07 271.769 
-0.83 -0.19 -2.48603 5.7053 0.00910808 0.00871907 -6.77701e-05 0.00892709 1.57579e-07 272.045 
-0.81 -0.19 -3.34341 4.94233 0.00911604 0.00870124 -9.30307e-05 0.00892468 1.57806e-07 271.581 
-0.79 -0.19 -3.47703 4.99019 0.00913772 0.00870206 -9.8264e-05 0.00893651 1.58099e-07 271.437 
-0.77 -0.19 -4.03819 4.85376 0.00915739 0.00873223 -0.000117297 0.00896746 1.58844e-07 271.1 
-0.99 -0.33 0.391973 2.67589 0.00908485 0.0087511 -7.71477e-05 0.00892321 1.57753e-07 271.627 
-0.97 -0.33 0.0777417 2.56493 0.00911635 0.00876226 -9.27103e-05 0.00895397 1.57977e-07 272.178 
-0.91 -0.33 -0.915701 2.43576 0.00915321 0.0087361 -7.35048e-05 0.00893769 1.57714e-07 272.136 
-0.99 -0.31 -0.166787 2.82302 0.00912123 0.0087474 -7.65811e-05 0.00895311 1.5814e-07 271.87 
-0.97 -0.31 -0.165404 2.32063 0.00910965 0.00875807 -7.71091e-05 0.00895572 1.58042e-07 272.118 
-0.87 -0.33 -2.34651 2.44486 0.00915462 0.00879113 -7.4219e-05 0.00897361 1.5903e-07 270.968 
-0.95 -0.31 -0.788117 3.02028 0.00910865 0.00870946 -9.14371e-05 0.00893015 1.57721e-07 271.894 
-0.85 -0.33 -2.38616 2.37899 0.00914651 0.00873683 -6.5704e-05 0.00896496 1.58281e-07 271.988 
-0.93 -0.31 -1.00462 3.0566 0.00913123 0.00871032 -9.18698e-05 0.00891062 1.57308e-07 272.011 
-0.91 -0.31 -1.37552 2.8115 0.00916095 0.00874416 -5.39267e-05 0.00894802 1.57907e-07 272.117 
-0.99 -0.29 -0.00942107 2.70349 0.00903902 0.00873437 -0.00010678 0.00890667 1.57546e-07 271.48 
-0.81 -0.33 -3.09033 3.17874 0.00915362 0.00871984 -4.79724e-05 0.00895787 1.57718e-07 272.743 
-0.89 -0.31 -1.50123 3.40884 0.00915507 0.00873543 -7.49978e-05 0.00895172 1.58192e-07 271.74 
-0.97 -0.29 -0.420296 3.36945 0.00908357 0.00875021 -9.55001e-05 0.00891866 1.57691e-07 271.596 
-0.87 -0.31 -1.92289 3.16046 0.00914739 0.00878157 -6.68266e-05 0.00897258 1.58607e-07 271.659 
-0.95 -0.29 -0.707103 3.07418 0.0090949 0.00869993 -7.86596e-05 0.00891165 1.57236e-07 272.168 
-0.85 -0.31 -3.04223 2.3579 0.00912191 0.00872977 -5.39694e-05 0.00893325 1.5788e-07 271.715 
-0.93 -0.29 -1.24078 3.36876 0.00910676 0.00872946 -9.00348e-05 0.00891947 1.57532e-07 271.895 
-0.83 -0.31 -3.22165 3.13102 0.00913839 0.00872013 -6.32133e-05 0.00894047 1.57607e-07 272.404 
-0.91 -0.29 -1.61031 3.40326 0.0090985 0.00869835 -9.57044e-05 0.00890338 1.57298e-07 271.807 
-0.99 -0.27 -0.188115 3.04866 0.00909018 0.00873568 -0.000112141 0.00893186 1.57562e-07 272.22 
-0.81 -0.31 -3.23026 3.52605 0.00914995 0.00871175 -5.75602e-05 0.00894967 1.57596e-07 272.705 
-0.89 -0.29 -2.05384 3.66507 0.00912685 0.00873217 -7.34819e-05 0.00891985 1.58005e-07 271.092 
-0.97 -0.27 -0.760992 3.90729 0.00905405 0.00871069 -9.78095e-05 0.00890033 1.57148e-07 271.973 
-0.79 -0.31 -3.51049 2.87982 0.00916071 0.00874893 -5.53866e-05 0.00895661 1.58521e-07 271.323 
-0.87 -0.29 -2.19634 3.60818 0.00912625 0.00876104 -4.41656e-05 0.00894172 1.57948e-07 271.855 
-0.95 -0.27 -0.864285 3.36045 0.00908343 0.0087142 -9.87698e-05 0.00889835 1.57182e-07 271.854 
-0.77 -0.31 -3.92929 2.69292 0.00917792 0.00875472 -4.65624e-05 0.0089622 1.59039e-07 270.609 
-0.85 -0.29 -2.64843 3.2044 0.00916285 0.00875065 -5.75551e-05 0.00896581 1.58478e-07 271.676 
-0.93 -0.27 -1.15257 3.42782 0.0090883 0.0087186 -0.000102269 0.00890487 1.57201e-07 272.021 
-0.95 -0.33 -0.0299393 2.46063 0.00913301 0.00871403 -7.0352e-05 0.0089344 1.58278e-07 271.066 
-0.93 -0.33 -0.545937 2.72626 0.00914313 0.00873072 -6.06638e-05 0.00894313 1.57858e-07 272.053 
-0.89 -0.33 -1.89206 2.89055 0.00914408 0.00873544 -5.87184e-05 0.00893803 1.5797e-07 271.704 
-0.83 -0.33 -2.63719 2.86337 0.00914138 0.00872439 -5.46329e-05 0.00896052 1.58401e-07 271.647 
-0.75 -0.31 -4.44558 2.9678 0.00917999 0.00874594 -3.7103e-05 0.00897597 1.58541e-07 271.875 
-0.75 -0.27 -4.23899 4.18703 0.0091902 0.00877245 -6.10584e-05 0.00896845 1.58429e-07 271.841 
-0.75 -0.25 -4.35802 4.02178 0.00919408 0.00877212 -6.09905e-05 0.00897938 1.58518e-07 272.019 
-0.75 -0.19 -4.3174 4.88165 0.00915012 0.00872931 -0.000114669 0.00896772 1.58714e-07 271.33 
-0.79 -0.33 -3.65435 2.5677 0.00915644 0.00874923 -2.99248e-05 0.00895689 1.58217e-07 271.853 
-0.75 -0.33 -3.87779 2.71208 0.00918779 0.00875829 -2.62502e-05 0.00898241 1.58566e-07 272.028 
-0.81 -0.17 -3.41597 5.74795 0.00914728 0.00872095 -9.85459e-05 0.00892782 1.58139e-07 271.105 
-0.79 -0.17 -4.61395 5.14786 0.00913872 0.00873748 -0.00012538 0.00895011 1.58212e-07 271.657 
-0.75 -0.17 -4.71243 5.3539 0.00916849 0.00871715 -0.000117972 0.00895358 1.58186e-07 271.806 
-0.73 -0.31 -4.4661 3.38457 0.00917477 0.00881244 -5.2827e-05 0.00901284 1.58893e-07 272.387 
-0.73 -0.29 -4.9875 2.83171 0.00920118 0.00881708 -4.6568e-05 0.00902597 1.5947e-07 271.797 
-0.73 -0.27 -5.00452 2.73626 0.00918117 0.00878939 -6.5908e-05 0.00900267 1.58627e-07 272.537 
-0.73 -0.25 -4.24689 3.38814 0.00921158 0.00878789 -6.78781e-05 0.00901419 1.59137e-07 272.01 
-0.73 -0.23 -4.76403 3.81641 0.00919332 0.00877935 -7.25649e-05 0.0089927 1.58801e-07 271.936 
-0.73 -0.21 -5.30444 3.89881 0.00917863 0.00876744 -8.63106e-05 0.0089713 1.5821e-07 272.302 
-0.73 -0.19 -4.48251 4.95911 0.00915115 0.0087697 -8.55407e-05 0.00897801 1.58547e-07 271.926 
-0.79 -0.05 -3.17164 7.81108 0.00904831 0.0087076 -0.000143569 0.00886833 1.57016e-07 271.224 
-0.87 -0.03 -2.84617 8.93805 0.0090023 0.00858835 -0.000184699 0.00882088 1.55741e-07 271.982 
-0.83 -0.05 -3.25418 7.69866 0.00901258 0.00865947 -0.000137901 0.0088746 1.57033e-07 271.387 
-0.91 -0.03 -1.95848 8.66482 0.00899386 0.00862632 -0.000189645 0.00882701 1.55841e-07 271.996 
-0.81 -0.05 -2.7482 8.05038 0.00904535 0.00868385 -0.000136904 0.00888079 1.57243e-07 271.214 
-0.89 -0.03 -2.35112 8.67406 0.00899761 0.00864662 -0.000171595 0.00884659 1.56273e-07 271.845 
-0.77 -0.05 -3.539 6.92054 0.00907752 0.00875849 -0.000135854 0.00893225 1.57822e-07 271.783 
-0.85 -0.03 -2.53926 7.92681 0.00899618 0.008638 -0.000162811 0.00883576 1.56392e-07 271.307 
-0.75 -0.05 -3.56996 6.42649 0.00907766 0.00875609 -0.000175372 0.0089328 1.57744e-07 271.936 
-0.83 -0.03 -2.35375 7.97717 0.00901727 0.00866382 -0.000157506 0.00885189 1.56833e-07 271.037 
-0.81 -0.03 -3.18576 7.95442 0.00900421 0.00867357 -0.00014942 0.00885713 1.56978e-07 270.947 
-0.79 -0.03 -2.89031 8.36524 0.00905317 0.00872055 -0.000154333 0.00890596 1.57652e-07 271.276 
-0.77 -0.03 -3.39184 6.81674 0.00905 0.00875219 -0.000157342 0.00891995 1.57774e-07 271.493 
-0.95 -0.17 -0.480237 4.91413 0.00908024 0.00871463 -0.000148347 0.00889621 1.57532e-07 271.185 
-0.99 -0.15 0.0309503 4.45122 0.00907885 0.00871681 -0.000165624 0.00891418 1.57515e-07 271.762 
-0.89 -0.17 -1.38437 5.56319 0.0091199 0.00869169 -0.000127886 0.00891456 1.57295e-07 272.154 
-0.97 -0.15 -0.561783 5.20377 0.00909338 0.00867463 -0.000163675 0.00889593 1.5722e-07 271.715 
-0.95 -0.15 -1.16664 5.34976 0.00909495 0.00870831 -0.000170693 0.00892161 1.57772e-07 271.547 
-0.93 -0.15 -1.42452 5.48442 0.00908211 0.00869292 -0.000150669 0.00890994 1.57543e-07 271.585 
-0.83 -0.17 -2.92787 5.87304 0.00911772 0.00871057 -8.49859e-05 0.00891756 1.57736e-07 271.484 
-0.91 -0.15 -1.48786 6.07849 0.00910271 0.00870269 -0.000153785 0.0089047 1.57615e-07 271.302 
-0.99 -0.13 -0.420507 4.77837 0.00905553 0.00871438 -0.00017552 0.00890843 1.57644e-07 271.365 
-0.89 -0.15 -1.5631 5.9244 0.00910894 0.00866572 -0.000126301 0.00890959 1.57597e-07 271.482 
-0.97 -0.13 -0.697852 5.65741 0.00909002 0.00868102 -0.00015997 0.00889936 1.573e-07 271.681 
-0.87 -0.15 -1.92637 6.49212 0.00910952 0.00869817 -0.000104861 0.00893794 1.5776e-07 272.064 
-0.95 -0.13 -0.974805 6.15272 0.0091019 0.0086942 -0.000182609 0.00891112 1.57372e-07 271.916 
-0.77 -0.17 -4.38963 5.37295 0.00914111 0.00871197 -0.000113578 0.00894294 1.58098e-07 271.633 
-0.85 -0.15 -2.60276 6.27463 0.00910149 0.008639 -0.000106644 0.00888419 1.5715e-07 271.477 
-0.93 -0.13 -1.48669 5.87232 0.00911667 0.00868656 -0.000153965 0.00891485 1.57435e-07 271.921 
-0.83 -0.15 -3.16701 5.86833 0.00912244 0.00870892 -0.000115117 0.00892727 1.58101e-07 271.153 
-0.91 -0.13 -2.0247 6.07403 0.00910963 0.00870173 -0.00016473 0.00892736 1.57945e-07 271.424 
-0.99 -0.11 -0.164292 5.27475 0.00907564 0.0086892 -0.000182154 0.00890575 1.5716e-07 272.118 
-0.81 -0.15 -3.41092 6.43607 0.00912976 0.00873019 -0.00012345 0.00893348 1.57978e-07 271.552 
-0.89 -0.13 -2.72215 5.94829 0.00910969 0.00864584 -0.000138676 0.00890226 1.57928e-07 270.69 
-0.97 -0.11 -0.43044 5.89091 0.00906795 0.00869613 -0.000196346 0.00891298 1.57556e-07 271.656 
-0.79 -0.15 -3.97904 5.29376 0.00915337 0.0087543 -0.000124324 0.0089505 1.58106e-07 271.849 
-0.87 -0.13 -2.70412 6.62955 0.00912103 0.00866115 -0.000120749 0.00892205 1.57804e-07 271.505 
-0.95 -0.11 -0.835403 6.32921 0.00906835 0.00867418 -0.000178225 0.00889605 1.57115e-07 271.9 
-0.77 -0.15 -4.17886 5.17179 0.00915916 0.00870915 -0.000133612 0.00894342 1.58275e-07 271.345 
-0.85 -0.13 -2.63679 6.77498 0.00914552 0.00867002 -0.000107227 0.00891336 1.57946e-07 270.997 
-0.93 -0.11 -1.03433 6.34169 0.00908613 0.00868138 -0.000174808 0.00891689 1.57951e-07 271.095 
-0.75 -0.15 -4.15605 5.60819 0.0091253 0.00870492 -0.000108329 0.00893216 1.58266e-07 271.02 
-0.83 -0.13 -2.56085 6.2338 0.00915987 0.00869375 -0.000134348 0.00894524 1.57972e-07 271.921 
-0.91 -0.11 -1.79421 6.8278 0.00907826 0.0086904 -0.000160305 0.00891316 1.57611e-07 271.567 
-0.99 -0.09 0.0559849 5.36851 0.00901839 0.00867955 -0.000217962 0.00885864 1.56419e-07 271.963 
-0.81 -0.13 -3.31602 7.13123 0.00913502 0.00872503 -0.000122686 0.00893957 1.58236e-07 271.295 
-0.89 -0.11 -2.43314 6.98345 0.00907674 0.00862478 -0.000142708 0.00886508 1.57224e-07 270.765 
-0.97 -0.09 -0.405214 6.7061 0.00905485 0.00868899 -0.000194247 0.00889773 1.57258e-07 271.704 
-0.79 -0.13 -3.2141 5.8744 0.00912423 0.00875825 -0.000121257 0.00894272 1.57862e-07 272.034 
-0.87 -0.11 -3.01362 6.59218 0.00906911 0.00863428 -0.000120972 0.00888597 1.5756e-07 270.825 
-0.95 -0.09 -0.467151 6.46994 0.00906686 0.0086712 -0.000189383 0.0088943 1.57013e-07 272.024 
-0.77 -0.13 -4.0397 5.37779 0.0090947 0.00868533 -0.000124739 0.00889995 1.57386e-07 271.551 
-0.85 -0.11 -3.14463 6.57053 0.00911468 0.00868615 -0.000142673 0.00890858 1.57741e-07 271.203 
-0.93 -0.09 -0.760358 6.78385 0.00905321 0.00865114 -0.000190956 0.00888842 1.573e-07 271.347 
-0.83 -0.11 -3.52479 7.30276 0.00910961 0.0086887 -0.00013529 0.00891793 1.57723e-07 271.518 
-0.91 -0.09 -1.45955 7.33684 0.00905355 0.0086599 -0.000131938 0.00889308 1.57114e-07 271.812 
-0.99 -0.07 -0.690406 6.13506 0.00902934 0.00867754 -0.000203141 0.00885572 1.56714e-07 271.359 
-0.81 -0.11 -3.76044 6.20324 0.00913122 0.00871347 -0.000127651 0.00894831 1.57823e-07 272.271 
-0.89 -0.09 -1.65012 7.42277 0.00903795 0.0086117 -0.000141739 0.0088535 1.56933e-07 270.915 
-0.97 -0.07 -0.490444 6.38608 0.00900237 0.00865432 -0.000208212 0.00884581 1.56527e-07 271.381 
-0.79 -0.11 -3.45758 6.31251 0.00912487 0.00873709 -0.000114097 0.00894618 1.58405e-07 271.206 
-0.87 -0.09 -1.83712 7.34793 0.00907993 0.00866313 -0.000168858 0.00889377 1.5769e-07 270.84 
-0.95 -0.07 -0.730399 6.79738 0.0090016 0.00867947 -0.00018201 0.00885182 1.56451e-07 271.696 
-0.77 -0.11 -4.09404 6.42881 0.00912677 0.00870152 -0.00012365 0.00894263 1.57725e-07 272.267 
-0.85 -0.09 -2.38319 6.70238 0.00906321 0.00865042 -0.000156936 0.00886806 1.57242e-07 270.825 
-0.93 -0.07 -1.45786 7.68292 0.00899687 0.00862779 -0.00016879 0.00884493 1.56287e-07 271.771 
-0.75 -0.11 -4.535 5.66833 0.00910918 0.008731 -0.000124688 0.00894171 1.58303e-07 271.245 
-0.83 -0.09 -2.88978 7.49965 0.00909755 0.00870467 -0.000143012 0.00891961 1.57709e-07 271.593 
-0.91 -0.07 -1.64238 7.22879 0.00901197 0.0086218 -0.000174401 0.00885497 1.56448e-07 271.799 
-0.99 -0.05 0.399447 6.50996 0.00895703 0.00862662 -0.000218313 0.00881384 1.55926e-07 271.441 
-0.81 -0.09 -3.11665 6.78928 0.00908938 0.00870673 -0.000138136 0.00891401 1.5782e-07 271.232 
-0.89 -0.07 -1.66015 7.65617 0.00904292 0.0086512 -0.000177365 0.00887726 1.56864e-07 271.76 
-0.97 -0.05 -0.409682 6.49263 0.00897942 0.00867227 -0.000202278 0.00884877 1.56419e-07 271.659 
-0.79 -0.09 -4.07947 6.38358 0.0090908 0.00873943 -0.000112919 0.00891222 1.57826e-07 271.167 
-0.87 -0.07 -2.2408 7.62361 0.00904137 0.00864287 -0.000157164 0.0088817 1.57352e-07 271.054 
-0.95 -0.05 -0.326608 7.48828 0.00897648 0.00865187 -0.000200108 0.00884893 1.56489e-07 271.543 
-0.77 -0.09 -4.23185 6.58246 0.00909674 0.00870253 -0.000113384 0.00892292 1.57859e-07 271.436 
-0.85 -0.07 -2.73348 7.65046 0.00905028 0.00865025 -0.000140816 0.0088786 1.56842e-07 271.839 
-0.93 -0.05 -0.844497 8.21299 0.00898261 0.00862091 -0.000181904 0.00882618 1.56106e-07 271.508 
-0.75 -0.09 -4.55458 6.36831 0.00910255 0.00873747 -0.000134452 0.0089378 1.58121e-07 271.439 
-0.83 -0.07 -2.73133 7.96885 0.0090391 0.00867284 -0.000151298 0.00887722 1.56852e-07 271.78 
-0.91 -0.05 -1.44957 8.27133 0.00899275 0.00863665 -0.000175857 0.00885541 1.56183e-07 272.274 
-0.99 -0.03 -0.399681 6.64196 0.00896398 0.00863582 -0.00021213 0.00881783 1.56094e-07 271.272 
-0.81 -0.07 -3.40464 7.71025 0.00902914 0.0086974 -0.000136523 0.0088793 1.57012e-07 271.567 
-0.89 -0.05 -1.92553 7.82772 0.00899928 0.00864775 -0.000187136 0.00884477 1.56481e-07 271.428 
-0.97 -0.03 -0.466897 7.16787 0.00895601 0.00864609 -0.000212912 0.00883159 1.5619e-07 271.529 