ITEM: TIMESTEP
871000
ITEM: NUMBER OF CELLS
5000
ITEM: BOX BOUNDS ss ss pp
-1 1
-0.5 0.5
-0.5 0.5
ITEM: CELLS xc yc f_U[*] f_V[*] f_Tau[1] f_Tau[2] f_Tau[3] f_Press[*] f_Mrho[*] f_Ttra[*] 
-0.99 -0.49 -0.171119 0.278753 0.00899456 0.00876518 -3.26319e-05 0.00888858 1.56664e-07 272.454 
-0.97 -0.49 -0.693498 0.0761731 0.00898066 0.00877024 -3.74111e-05 0.00888187 1.56622e-07 272.321 
-0.95 -0.49 -0.78814 0.0963888 0.00898856 0.00874906 -3.37606e-05 0.00888263 1.56806e-07 272.025 
-0.93 -0.49 -0.93786 0.0853972 0.00900154 0.00875993 -3.14912e-05 0.00889603 1.56981e-07 272.132 
-0.91 -0.49 -1.34387 0.100336 0.00901151 0.00872537 -2.38624e-05 0.00887024 1.56747e-07 271.748 
-0.99 -0.47 -0.212921 0.576069 0.00903199 0.00877996 -2.29575e-05 0.00892019 1.5722e-07 272.456 
-0.89 -0.49 -1.71116 0.282715 0.00904345 0.00874677 -2.33042e-05 0.008905 1.57094e-07 272.211 
-0.97 -0.47 -0.223689 0.454666 0.00902706 0.00876937 -3.8963e-05 0.00891174 1.56929e-07 272.702 
-0.87 -0.49 -1.89551 -0.100234 0.00905572 0.00876713 -5.42821e-06 0.00891031 1.57363e-07 271.908 
-0.95 -0.47 -0.676819 0.365088 0.00903515 0.00875773 -3.74318e-05 0.00890677 1.57053e-07 272.336 
-0.85 -0.49 -1.95501 0.250392 0.00905831 0.0087669 -5.63671e-06 0.00891015 1.57089e-07 272.376 
-0.93 -0.47 -1.25117 0.35341 0.00904262 0.00874885 -3.93096e-05 0.00890456 1.57008e-07 272.347 
-0.83 -0.49 -1.97397 -0.161652 0.0090681 0.00878104 -6.20941e-07 0.00892654 1.57438e-07 272.273 
-0.91 -0.47 -1.45735 0.655428 0.00904784 0.00873202 -3.15487e-05 0.00890265 1.57204e-07 271.949 
-0.99 -0.45 -0.152465 0.849695 0.00905958 0.00878391 -2.78593e-05 0.00893239 1.57508e-07 272.331 
-0.81 -0.49 -2.06834 0.324745 0.00905874 0.00877335 6.4668e-06 0.00891774 1.57293e-07 272.255 
-0.89 -0.47 -1.99231 0.584505 0.00903444 0.00873707 -3.65577e-05 0.00889303 1.57011e-07 271.988 
-0.97 -0.45 -0.527512 0.689079 0.00906841 0.00877778 -3.19689e-05 0.00893831 1.57411e-07 272.678 
-0.79 -0.49 -2.54586 0.142291 0.00904941 0.00876818 2.66088e-05 0.00891881 1.574e-07 272.102 
-0.87 -0.47 -2.22965 0.0717846 0.00904645 0.00874704 -1.99491e-05 0.00890732 1.5703e-07 272.393 
-0.95 -0.45 -0.859417 0.901362 0.00905626 0.00876634 -4.39016e-05 0.00891757 1.57148e-07 272.501 
-0.77 -0.49 -2.52753 -0.125001 0.00905826 0.00879471 3.53136e-05 0.0089359 1.57483e-07 272.48 
-0.85 -0.47 -2.22181 0.148741 0.0090676 0.00877277 -1.11265e-05 0.00892322 1.57272e-07 272.458 
-0.93 -0.45 -1.21136 0.60075 0.0090556 0.00872524 -4.59263e-05 0.00890006 1.57138e-07 271.984 
-0.83 -0.47 -2.47996 0.169588 0.0090646 0.00876488 -4.16629e-06 0.00892116 1.57254e-07 272.428 
-0.91 -0.45 -1.57529 0.967064 0.00905978 0.00874093 -2.91572e-05 0.0089053 1.57353e-07 271.771 
-0.99 -0.43 -0.281576 1.29693 0.00908264 0.00878122 -3.40176e-05 0.00894395 1.5779e-07 272.195 
-0.81 -0.47 -2.71481 0.477827 0.00907463 0.00875857 9.44035e-06 0.00892638 1.57486e-07 272.185 
-0.89 -0.45 -1.86791 0.756762 0.00906993 0.00872525 -3.41714e-05 0.0088932 1.57029e-07 271.962 
-0.97 -0.43 -0.514624 0.815701 0.00908586 0.00878136 -3.28134e-05 0.00895057 1.5763e-07 272.673 
-0.79 -0.47 -2.86289 0.39133 0.00908963 0.00875651 2.03508e-05 0.0089329 1.57549e-07 272.274 
-0.87 -0.45 -2.10879 0.447842 0.00907108 0.008743 -3.06295e-05 0.00890645 1.56968e-07 272.473 
-0.95 -0.43 -0.72983 1.09053 0.0090957 0.00877258 -4.18155e-05 0.00894028 1.57718e-07 272.208 
-0.77 -0.47 -3.24033 0.129394 0.0090972 0.00880018 1.49578e-05 0.00895237 1.58003e-07 272.083 
-0.85 -0.45 -2.37682 0.169896 0.00907708 0.00875297 -1.36668e-05 0.00892297 1.57143e-07 272.674 
-0.93 -0.43 -1.14382 1.27402 0.00909362 0.00873056 -4.07961e-05 0.00891854 1.57158e-07 272.513 
-0.75 -0.47 -3.25561 0.231957 0.00909706 0.00881083 1.79072e-05 0.00896239 1.57781e-07 272.772 
-0.83 -0.45 -2.66569 0.486569 0.00909296 0.00876375 -1.48452e-05 0.00893456 1.5753e-07 272.357 
-0.91 -0.43 -1.60793 1.00014 0.00908552 0.00872663 -3.99325e-05 0.00890453 1.57128e-07 272.137 
-0.99 -0.41 -0.174582 1.56869 0.00908829 0.00878276 -4.04073e-05 0.00894936 1.58009e-07 271.982 
-0.81 -0.45 -2.91322 0.763041 0.00909935 0.00874027 -7.11153e-06 0.00892976 1.57452e-07 272.347 
-0.89 -0.43 -1.3926 0.987824 0.0090861 0.00872312 -3.53957e-05 0.00890696 1.57172e-07 272.136 
-0.97 -0.41 -0.516357 1.20204 0.00910547 0.00878871 -4.96177e-05 0.00895168 1.5769e-07 272.603 
-0.79 -0.45 -3.25256 0.802893 0.00910432 0.00875256 1.38591e-05 0.0089363 1.57743e-07 272.044 
-0.87 -0.43 -1.60628 0.630183 0.00908897 0.00873945 -3.63215e-05 0.0089162 1.57251e-07 272.281 
-0.95 -0.41 -0.770311 1.36164 0.00910659 0.00877442 -3.98423e-05 0.00894623 1.57705e-07 272.411 
-0.77 -0.45 -3.51402 0.290047 0.0091249 0.00879775 1.15475e-05 0.00896033 1.58092e-07 272.172 
-0.85 -0.43 -2.05153 0.742149 0.00909955 0.0087462 -2.94421e-05 0.00893089 1.57457e-07 272.372 
-0.93 -0.41 -1.15978 1.74587 0.00910234 0.00871861 -4.24572e-05 0.0089149 1.5728e-07 272.191 
-0.75 -0.45 -3.62266 0.234116 0.00912199 0.00881175 1.17696e-05 0.00896657 1.58442e-07 271.76 
-0.83 -0.43 -2.44914 0.930875 0.0091048 0.00875755 -1.07e-05 0.00894122 1.57589e-07 272.458 
-0.91 -0.41 -1.31018 1.28335 0.00911039 0.00872677 -3.25168e-05 0.00892571 1.57492e-07 272.154 
-0.99 -0.39 -0.214463 1.99299 0.00909038 0.00878613 -6.2427e-05 0.00895587 1.58199e-07 271.853 
-0.81 -0.43 -3.06569 1.00714 0.00910484 0.00873378 -9.87505e-06 0.00893371 1.57661e-07 272.105 
-0.89 -0.41 -1.6682 1.05186 0.0091054 0.00873794 -3.69295e-05 0.00892812 1.57366e-07 272.446 
-0.97 -0.39 -0.650234 1.49966 0.00910581 0.00878276 -5.04582e-05 0.00895001 1.57962e-07 272.083 
-0.79 -0.43 -3.31023 0.936968 0.00912408 0.00874796 -9.70174e-06 0.00894328 1.57826e-07 272.113 
-0.87 -0.41 -2.04178 1.05593 0.00909858 0.00872649 -3.72508e-05 0.00892646 1.57334e-07 272.45 
-0.95 -0.39 -0.924835 1.564 0.00910073 0.0087599 -3.75911e-05 0.00893171 1.57403e-07 272.491 
-0.77 -0.43 -3.5013 0.660905 0.00914377 0.00879128 -4.43518e-07 0.00897462 1.5829e-07 272.266 
-0.85 -0.41 -2.38709 0.984397 0.00910199 0.00874367 -3.51279e-05 0.00893878 1.57725e-07 272.15 
-0.93 -0.39 -0.57117 1.87445 0.00911047 0.00872818 -2.98812e-05 0.00892182 1.57499e-07 272.023 
-0.83 -0.41 -2.74876 1.33131 0.00911724 0.00873982 -2.76107e-05 0.00894091 1.57689e-07 272.278 
-0.91 -0.39 -1.15613 1.79228 0.00910084 0.00872073 -4.9246e-05 0.00891675 1.57355e-07 272.118 
-0.99 -0.37 0.126856 2.20401 0.00910538 0.00880674 -5.73793e-05 0.00897326 1.58587e-07 271.715 
-0.81 -0.41 -2.92614 1.41512 0.00913122 0.00873656 -1.95609e-05 0.00894568 1.57872e-07 272.106 
-0.89 -0.39 -1.65026 1.42467 0.00911186 0.00874056 -4.4965e-05 0.00894489 1.57674e-07 272.423 
-0.97 -0.37 -0.255903 2.01718 0.00910061 0.0087599 -5.30601e-05 0.0089463 1.57828e-07 272.2 
-0.79 -0.41 -3.15681 1.19878 0.00914786 0.0087545 -2.30832e-05 0.008959 1.58168e-07 272.002 
-0.87 -0.39 -1.90886 1.32373 0.00912937 0.00872363 -3.93094e-05 0.00893758 1.57628e-07 272.281 
-0.95 -0.37 -0.656266 1.7318 0.0091174 0.00874731 -4.7748e-05 0.0089312 1.57807e-07 271.778 
-0.77 -0.41 -3.88246 1.06144 0.00914691 0.00877849 -2.20674e-05 0.00896778 1.58299e-07 272.042 
-0.85 -0.39 -2.41311 1.46551 0.0091436 0.00875172 -4.40365e-05 0.00895404 1.58186e-07 271.819 
-0.93 -0.37 -1.32459 1.98607 0.0091216 0.00873536 -4.06183e-05 0.00894132 1.57795e-07 272.106 
-0.75 -0.41 -4.19251 1.10006 0.00916946 0.00879698 -8.30355e-06 0.00899798 1.58645e-07 272.363 
-0.83 -0.39 -2.71538 1.71569 0.00913648 0.00872462 -4.05786e-05 0.00894264 1.57867e-07 272.023 
-0.91 -0.37 -1.33429 2.22056 0.00913695 0.00872901 -5.41284e-05 0.00894666 1.57763e-07 272.324 
-0.99 -0.35 -0.18744 2.20945 0.00909843 0.00879961 -7.44557e-05 0.00896781 1.58336e-07 271.979 
-0.81 -0.39 -2.86417 1.35892 0.00915009 0.00873579 -3.0464e-05 0.00895371 1.57797e-07 272.481 
-0.89 -0.37 -1.72387 1.96393 0.00914483 0.00873384 -5.02947e-05 0.00895034 1.57807e-07 272.36 
-0.97 -0.35 -0.352659 2.48436 0.00911019 0.00874785 -6.26425e-05 0.00894371 1.57961e-07 271.894 
-0.79 -0.39 -3.34611 1.86068 0.00914772 0.00874372 -2.80934e-05 0.0089599 1.58034e-07 272.26 
-0.87 -0.37 -2.36967 1.79805 0.00914921 0.00872276 -5.3969e-05 0.00894331 1.57522e-07 272.639 
-0.95 -0.35 -0.597738 1.98439 0.00911637 0.00873849 -5.17033e-05 0.00893592 1.57817e-07 271.904 
-0.77 -0.39 -3.84601 1.55325 0.00915622 0.00878693 -2.52105e-05 0.008986 1.58557e-07 272.152 
-0.85 -0.37 -2.73872 1.79568 0.00914714 0.00874538 -4.89137e-05 0.00895147 1.58014e-07 272.038 
-0.93 -0.35 -1.06527 2.5766 0.00913168 0.0087384 -5.87501e-05 0.00895022 1.57895e-07 272.204 
-0.83 -0.37 -2.89452 1.79161 0.00914771 0.00871739 -4.06969e-05 0.00894313 1.57854e-07 272.061 
-0.91 -0.35 -1.51804 2.28996 0.00912659 0.00873396 -5.2123e-05 0.00893274 1.57634e-07 272.122 
-0.81 -0.37 -3.29949 1.66279 0.00915759 0.008724 -3.28521e-05 0.00895581 1.57971e-07 272.244 
-0.89 -0.35 -1.74372 2.60284 0.0091272 0.0087261 -6.01613e-05 0.00893417 1.57635e-07 272.165 
-0.79 -0.37 -3.65084 2.21769 0.00916438 0.00875302 -3.10974e-05 0.00897974 1.58363e-07 272.296 
-0.87 -0.35 -2.27832 2.09079 0.00913344 0.00873056 -5.08216e-05 0.00894426 1.57832e-07 272.132 
-0.77 -0.37 -3.90665 2.35306 0.00916587 0.0087801 -2.67148e-05 0.00898373 1.5852e-07 272.147 
-0.85 -0.35 -2.57125 2.27838 0.00914923 0.00872697 -5.20231e-05 0.00894472 1.57962e-07 271.921 
-0.83 -0.35 -3.19689 2.12424 0.00915888 0.00872085 -4.49109e-05 0.00894473 1.57957e-07 271.931 
-0.81 -0.35 -3.61239 2.23142 0.00916252 0.00872115 -5.4307e-05 0.00895508 1.5806e-07 272.068 
-0.79 -0.35 -3.7315 2.41839 0.00918331 0.00874075 -3.94725e-05 0.00897189 1.58315e-07 272.14 
-0.77 -0.35 -3.94486 2.6254 0.00919836 0.00877476 -2.96682e-05 0.00899384 1.58458e-07 272.56 
-0.75 -0.35 -4.2393 2.37237 0.00919527 0.00878647 -1.9872e-05 0.00900349 1.58746e-07 272.357 
-0.75 -0.49 -2.70885 0.210218 0.00907912 0.00880847 1.99589e-05 0.0089463 1.57889e-07 272.096 
-0.75 -0.43 -3.9268 0.692164 0.00915819 0.00881093 2.75257e-06 0.00899412 1.58719e-07 272.12 
-0.75 -0.39 -4.83137 1.63077 0.0091583 0.00878412 -2.29131e-05 0.00898808 1.58499e-07 272.314 
-0.75 -0.37 -4.18765 2.02664 0.00916417 0.00878512 -2.42099e-05 0.00898556 1.58266e-07 272.639 
-0.77 -0.33 -4.00658 2.76492 0.00915457 0.00874933 -4.45965e-05 0.00895407 1.58169e-07 271.85 
-0.73 -0.49 -3.04518 0.22438 0.00908105 0.00881384 1.93776e-05 0.00895934 1.58063e-07 272.192 
-0.73 -0.47 -3.19196 0.159646 0.00909614 0.00880391 2.11286e-05 0.00896579 1.582e-07 272.153 
-0.73 -0.45 -3.70309 0.387796 0.00913323 0.00880181 9.6361e-06 0.00897932 1.58446e-07 272.14 
-0.73 -0.43 -4.65164 0.860368 0.00916445 0.00880698 1.37109e-06 0.00899787 1.58698e-07 272.269 
-0.73 -0.41 -4.67806 1.30557 0.00917943 0.00881082 -2.81147e-06 0.00900852 1.58829e-07 272.366 
-0.73 -0.39 -4.70596 1.46613 0.00916784 0.0088024 -8.6166e-06 0.00899953 1.58629e-07 272.438 
-0.73 -0.37 -4.66017 1.74888 0.00916464 0.00878969 -2.6036e-05 0.00898914 1.58597e-07 272.178 
-0.73 -0.35 -4.48839 2.03281 0.00918831 0.00879118 -1.99691e-05 0.00899706 1.58697e-07 272.247 
-0.81 -0.29 -3.03953 3.45108 0.00915283 0.00871169 -7.00659e-05 0.00893867 1.58042e-07 271.601 
-0.89 -0.27 -1.87315 3.76835 0.00911562 0.00869055 -8.12778e-05 0.00891627 1.57464e-07 271.914 
-0.97 -0.25 -0.57711 3.87236 0.00909322 0.00871429 -0.000104794 0.00891111 1.57293e-07 272.053 
-0.83 -0.29 -2.8977 3.38002 0.00913405 0.00872206 -7.13016e-05 0.00894229 1.57637e-07 272.408 
-0.91 -0.27 -1.18314 4.01566 0.0091121 0.00871684 -8.9935e-05 0.00892769 1.57715e-07 271.83 
-0.99 -0.25 -0.125354 3.74726 0.00908865 0.00873646 -0.000108261 0.00892809 1.57639e-07 271.972 
-0.79 -0.29 -3.35847 3.2658 0.00917105 0.00872537 -6.1464e-05 0.00895129 1.58239e-07 271.645 
-0.87 -0.27 -2.40982 3.97443 0.00912513 0.008724 -7.37093e-05 0.00894026 1.57821e-07 272.03 
-0.95 -0.25 -0.642082 3.92813 0.00910456 0.00873428 -0.000115468 0.00892942 1.57676e-07 271.949 
-0.77 -0.29 -3.88383 3.32776 0.00918676 0.00874064 -4.54555e-05 0.00897376 1.58555e-07 271.784 
-0.85 -0.27 -2.53259 3.71722 0.00914109 0.00872298 -7.32504e-05 0.00893901 1.57878e-07 271.893 
-0.93 -0.25 -0.934596 4.01399 0.0091028 0.00870989 -0.000106572 0.00891742 1.57503e-07 271.882 
-0.75 -0.29 -4.50632 3.17949 0.00918863 0.00877334 -5.1775e-05 0.0089985 1.58822e-07 272.076 
-0.83 -0.27 -2.87556 3.60861 0.00915528 0.00873222 -6.94486e-05 0.00895547 1.58221e-07 271.804 
-0.91 -0.25 -1.34524 4.405 0.00911111 0.00871228 -9.32366e-05 0.00892124 1.57619e-07 271.798 
-0.99 -0.23 -0.0455167 3.91754 0.00907034 0.00873429 -0.000123283 0.00891869 1.57454e-07 272.006 
-0.81 -0.27 -3.37539 3.75928 0.0091481 0.00871224 -8.33944e-05 0.00893488 1.57876e-07 271.771 
-0.89 -0.25 -1.85756 4.41657 0.00911422 0.00868144 -8.97545e-05 0.00891403 1.57412e-07 271.935 
-0.97 -0.23 -0.144943 4.16558 0.00909069 0.00872858 -0.000124754 0.00892474 1.57657e-07 271.839 
-0.79 -0.27 -3.88105 3.67788 0.00915932 0.00870628 -7.6038e-05 0.00893565 1.5812e-07 271.374 
-0.87 -0.25 -2.30081 4.33579 0.009143 0.00871595 -8.41605e-05 0.00894882 1.58047e-07 271.901 
-0.95 -0.23 -0.677019 4.19999 0.00909986 0.00871765 -0.000123947 0.00892005 1.57468e-07 272.023 
-0.77 -0.27 -4.12272 3.83267 0.00917457 0.0087406 -6.35205e-05 0.00896923 1.58469e-07 271.795 
-0.85 -0.25 -2.70793 4.03087 0.00915904 0.00873077 -9.26186e-05 0.00895036 1.58041e-07 271.957 
-0.93 -0.23 -1.11484 4.43703 0.00911199 0.00870975 -0.000114521 0.00892276 1.57569e-07 271.931 
-0.83 -0.25 -3.1311 4.09378 0.00916388 0.00871255 -8.36075e-05 0.00893799 1.58187e-07 271.33 
-0.91 -0.23 -1.37898 4.81204 0.00912393 0.00868936 -0.000104063 0.00892305 1.5746e-07 272.129 
-0.99 -0.21 0.0127714 3.95308 0.0091064 0.00874 -0.000132621 0.00894594 1.58123e-07 271.683 
-0.81 -0.25 -3.46268 4.19005 0.00917188 0.00872702 -7.38081e-05 0.00895735 1.58354e-07 271.632 
-0.89 -0.23 -1.91736 4.99358 0.00914279 0.00868573 -9.73707e-05 0.00893271 1.57802e-07 271.833 
-0.97 -0.21 -0.0702647 4.36559 0.00911116 0.00870744 -0.000129398 0.0089278 1.57779e-07 271.723 
-0.79 -0.25 -3.90644 4.31039 0.00915399 0.00869899 -8.04536e-05 0.00893261 1.58055e-07 271.395 
-0.87 -0.23 -2.36087 4.72642 0.00915054 0.00871565 -0.000110212 0.00893873 1.57957e-07 271.749 
-0.95 -0.21 -0.38069 4.70715 0.00911311 0.00871621 -0.000125973 0.00893055 1.5752e-07 272.254 
-0.77 -0.25 -4.40841 3.95734 0.00915921 0.00873213 -8.46356e-05 0.00894648 1.58003e-07 271.905 
-0.85 -0.23 -2.80802 4.68705 0.00914516 0.00872145 -9.08997e-05 0.00893926 1.57895e-07 271.872 
-0.93 -0.21 -1.02842 4.92159 0.00911555 0.00870101 -0.000121847 0.00891634 1.57495e-07 271.862 
-0.83 -0.23 -3.24426 4.39139 0.00913899 0.00870755 -8.44086e-05 0.00892945 1.57799e-07 271.739 
-0.91 -0.21 -1.46169 5.11265 0.00912577 0.00868308 -0.000118942 0.00891918 1.57549e-07 271.856 
-0.99 -0.19 -0.115431 4.17689 0.00908566 0.00873939 -0.000140908 0.00893473 1.57919e-07 271.692 
-0.81 -0.23 -3.5996 4.18363 0.00915279 0.00871618 -8.83858e-05 0.0089495 1.57987e-07 272.025 
-0.89 -0.21 -1.62969 5.45362 0.00914497 0.0086966 -0.000115803 0.0089449 1.58037e-07 271.798 
-0.97 -0.19 -0.75287 4.72308 0.00909796 0.00870144 -0.000144006 0.00890447 1.57663e-07 271.212 
-0.79 -0.23 -3.63894 4.78627 0.00918162 0.00871217 -8.16931e-05 0.0089551 1.58209e-07 271.813 
-0.87 -0.21 -1.94071 5.09258 0.00914428 0.00869225 -0.000113563 0.00893497 1.58087e-07 271.411 
-0.95 -0.19 -0.894244 5.03313 0.00910868 0.00872147 -0.000126368 0.00891426 1.57528e-07 271.743 
-0.77 -0.23 -3.99456 4.39295 0.00918652 0.00873477 -9.05364e-05 0.0089691 1.58295e-07 272.089 
-0.85 -0.21 -2.74766 5.18576 0.00915634 0.00871028 -9.04276e-05 0.00894592 1.57927e-07 272.018 
-0.93 -0.19 -1.00213 5.34872 0.00912191 0.00869533 -0.00012626 0.00892439 1.57771e-07 271.632 
-0.75 -0.23 -4.39256 4.04819 0.00918639 0.00876276 -9.34056e-05 0.00898727 1.58673e-07 271.992 
-0.83 -0.21 -3.32282 4.68038 0.00917584 0.00871938 -9.42244e-05 0.00895788 1.58144e-07 272.009 
-0.91 -0.19 -1.40528 5.52604 0.00912032 0.00867661 -0.000128315 0.00890547 1.57368e-07 271.751 
-0.81 -0.21 -3.61543 4.64056 0.00916542 0.0087074 -8.80959e-05 0.0089552 1.58228e-07 271.784 
-0.89 -0.19 -1.76917 5.56504 0.00912725 0.00868862 -0.000121359 0.00892345 1.57701e-07 271.724 
-0.79 -0.21 -3.9594 4.99953 0.00915871 0.00871473 -0.000101318 0.00895187 1.58213e-07 271.707 
-0.87 -0.19 -2.19337 5.6041 0.00913237 0.00868876 -0.000105302 0.00892728 1.57741e-07 271.773 
-0.77 -0.21 -4.25052 4.66423 0.00916852 0.0087331 -9.20058e-05 0.00895889 1.58274e-07 271.816 
-0.85 -0.19 -2.40217 5.63503 0.00913111 0.00869405 -0.000113066 0.00892482 1.5803e-07 271.201 
-0.75 -0.21 -4.70005 4.60117 0.00917995 0.0087537 -9.43405e-05 0.00898312 1.58503e-07 272.158 
-0.83 -0.19 -2.75817 5.2846 0.00912754 0.00871539 -0.000101184 0.00893444 1.57848e-07 271.805 
-0.81 -0.19 -3.36795 5.03821 0.00914926 0.0087027 -0.000106675 0.00893191 1.57914e-07 271.615 
-0.79 -0.19 -3.99744 5.23187 0.00916925 0.00872245 -9.03084e-05 0.00896479 1.58442e-07 271.706 
-0.77 -0.19 -4.22598 5.23844 0.0091751 0.00874177 -0.000104852 0.00896785 1.58665e-07 271.418 
-0.99 -0.33 -0.0782777 2.54407 0.00909739 0.00878391 -8.37629e-05 0.00896077 1.58067e-07 272.23 
-0.97 -0.33 -0.327988 2.50648 0.00910899 0.00874492 -7.77393e-05 0.00894322 1.57908e-07 271.969 
-0.91 -0.33 -1.28975 2.83317 0.00915206 0.00874188 -5.714e-05 0.00894502 1.57893e-07 272.049 
-0.99 -0.31 -0.200671 2.97124 0.00908254 0.00876758 -8.78567e-05 0.00893891 1.57781e-07 272.057 
-0.97 -0.31 -0.463122 2.52711 0.00909186 0.00873673 -7.78385e-05 0.0089288 1.57765e-07 271.776 
-0.87 -0.33 -2.12907 2.62711 0.00915345 0.00873416 -6.80781e-05 0.00895412 1.58116e-07 271.943 
-0.95 -0.31 -1.0581 3.17794 0.00909871 0.00872487 -7.93871e-05 0.00892333 1.57558e-07 271.968 
-0.85 -0.33 -2.48581 2.60772 0.00914904 0.00872087 -6.09355e-05 0.00895098 1.57963e-07 272.111 
-0.93 -0.31 -1.35288 3.20867 0.00911351 0.00873155 -7.90971e-05 0.00893169 1.57714e-07 271.953 
-0.91 -0.31 -1.84605 2.96592 0.00914204 0.00873073 -6.95573e-05 0.00894489 1.57746e-07 272.3 
-0.99 -0.29 -0.056869 3.07991 0.00905366 0.00875191 -0.00010484 0.00892011 1.57526e-07 271.925 
-0.81 -0.33 -3.43964 2.53199 0.00916222 0.00871923 -4.71853e-05 0.00895669 1.57929e-07 272.342 
-0.89 -0.31 -1.97944 3.25313 0.00915587 0.00872134 -6.19695e-05 0.00894998 1.58003e-07 272.012 
-0.97 -0.29 -0.618304 3.3387 0.00907272 0.00872784 -9.09388e-05 0.00891373 1.57566e-07 271.661 
-0.87 -0.31 -2.0904 3.0079 0.00915695 0.00873025 -6.64017e-05 0.00895182 1.58184e-07 271.756 
-0.95 -0.29 -0.806151 3.48244 0.00908639 0.00871457 -8.96204e-05 0.0089166 1.57299e-07 272.21 
-0.85 -0.31 -2.74632 2.97174 0.00914771 0.00871662 -5.69651e-05 0.00893999 1.57846e-07 271.978 
-0.93 -0.29 -1.2237 3.37111 0.00910236 0.00874185 -9.1665e-05 0.00893 1.57531e-07 272.218 
-0.83 -0.31 -2.94309 3.17871 0.0091447 0.00872339 -5.21153e-05 0.00895082 1.57806e-07 272.376 
-0.91 -0.29 -1.31192 3.53743 0.00909461 0.00871271 -8.52169e-05 0.00891555 1.57449e-07 271.919 
-0.99 -0.27 -0.139696 3.40066 0.00908188 0.00874507 -0.000110543 0.00893368 1.57855e-07 271.77 
-0.81 -0.31 -3.42706 3.01445 0.00914402 0.00870906 -5.31186e-05 0.00894224 1.57732e-07 272.244 
-0.89 -0.29 -1.63233 3.38965 0.00910798 0.00871399 -7.70368e-05 0.00892351 1.57673e-07 271.775 
-0.97 -0.27 -0.311408 3.65594 0.00907642 0.0087149 -0.000107557 0.00891332 1.57368e-07 271.99 
-0.79 -0.31 -3.73932 2.91204 0.00915443 0.00874009 -5.03266e-05 0.00895449 1.58199e-07 271.811 
-0.87 -0.29 -2.1408 3.44884 0.00911161 0.00872174 -5.29868e-05 0.00892586 1.57816e-07 271.599 
-0.95 -0.27 -0.668571 3.68363 0.00908811 0.00872413 -9.77504e-05 0.00891304 1.57441e-07 271.856 
-0.77 -0.31 -3.91826 3.05788 0.00915909 0.00873992 -4.31715e-05 0.00894748 1.58354e-07 271.332 
-0.85 -0.29 -2.60188 3.55317 0.00912248 0.00871398 -5.98481e-05 0.00893458 1.5796e-07 271.618 
-0.93 -0.27 -0.759113 3.63727 0.00909739 0.00872387 -9.62085e-05 0.00892132 1.57357e-07 272.253 
-0.95 -0.33 -0.582569 2.52167 0.00912354 0.00872729 -6.23373e-05 0.00893783 1.5776e-07 272.061 
-0.93 -0.33 -1.04533 2.94694 0.00913539 0.00873282 -5.74036e-05 0.00894255 1.57754e-07 272.215 
-0.89 -0.33 -1.84922 2.79414 0.00915094 0.00871715 -5.78377e-05 0.0089397 1.5778e-07 272.083 
-0.83 -0.33 -3.0189 2.78939 0.00915253 0.00871961 -6.13249e-05 0.00895522 1.57982e-07 272.207 
-0.75 -0.31 -4.23276 2.72359 0.00917506 0.00877321 -4.18635e-05 0.00898964 1.58716e-07 271.99 
-0.75 -0.27 -4.42572 3.87938 0.00920233 0.00877149 -6.28694e-05 0.00899061 1.58706e-07 272.036 
-0.75 -0.25 -4.46308 3.95399 0.00917298 0.00876917 -7.66216e-05 0.00897621 1.5862e-07 271.747 
-0.75 -0.19 -4.55783 4.93913 0.00916477 0.00874089 -9.91367e-05 0.00897133 1.58678e-07 271.501 
-0.79 -0.33 -3.8601 2.66256 0.00914957 0.00873818 -4.38972e-05 0.00895534 1.58099e-07 272.009 
-0.75 -0.33 -4.20915 2.37304 0.00916433 0.00877631 -2.41021e-05 0.00898326 1.58697e-07 271.828 
-0.81 -0.17 -3.58746 5.92153 0.0091336 0.00870188 -0.000109196 0.00892065 1.57667e-07 271.698 
-0.79 -0.17 -4.10262 5.62476 0.00913444 0.00872468 -0.000116921 0.00894855 1.58016e-07 271.946 
-0.75 -0.17 -4.42488 5.4248 0.00915919 0.00874162 -0.000106869 0.00896082 1.58327e-07 271.784 
-0.73 -0.31 -4.94516 2.73381 0.00918121 0.00879244 -4.57797e-05 0.00899555 1.58627e-07 272.32 
-0.73 -0.29 -4.57085 3.14913 0.00919446 0.00879522 -4.81156e-05 0.00900514 1.59172e-07 271.677 
-0.73 -0.27 -5.06632 3.23558 0.00921054 0.0087931 -6.14249e-05 0.00901376 1.59087e-07 272.083 
-0.73 -0.25 -4.50281 3.66382 0.00919297 0.00877943 -6.8203e-05 0.0090024 1.59171e-07 271.597 
-0.73 -0.23 -4.81363 3.97291 0.00918366 0.00876595 -7.55311e-05 0.00898267 1.58689e-07 271.825 
-0.73 -0.21 -5.04704 4.18369 0.00919456 0.00876361 -9.24383e-05 0.00897702 1.58555e-07 271.884 
-0.73 -0.19 -4.82573 4.70776 0.00916752 0.00877072 -0.000100116 0.00897935 1.58652e-07 271.788 
-0.79 -0.05 -3.32621 7.59627 0.0090525 0.0087011 -0.000157759 0.00888974 1.57433e-07 271.159 
-0.87 -0.03 -2.40909 8.61884 0.00899211 0.00861038 -0.000183173 0.00881831 1.56211e-07 271.083 
-0.83 -0.05 -2.68414 8.27804 0.00902925 0.00869342 -0.000147015 0.00888766 1.57037e-07 271.779 
-0.91 -0.03 -1.87527 8.17109 0.00899834 0.0086298 -0.000185396 0.00882825 1.5618e-07 271.444 
-0.81 -0.05 -2.81982 7.82696 0.0090432 0.00869203 -0.000136568 0.00888586 1.57443e-07 271.023 
-0.89 -0.03 -1.9599 8.5037 0.00898364 0.00862924 -0.000175458 0.00882462 1.56219e-07 271.265 
-0.77 -0.05 -3.64188 6.99331 0.00907126 0.0087441 -0.000155832 0.00892081 1.578e-07 271.474 
-0.85 -0.03 -2.55559 8.0216 0.00899626 0.00864436 -0.000175218 0.00884423 1.56588e-07 271.226 
-0.75 -0.05 -3.95453 7.06222 0.00907999 0.0087709 -0.000170969 0.00893763 1.57965e-07 271.702 
-0.83 -0.03 -2.58348 8.48736 0.00902415 0.00867939 -0.00016887 0.00887369 1.57174e-07 271.116 
-0.81 -0.03 -3.12019 8.17872 0.00903618 0.0086873 -0.000155965 0.00888044 1.57419e-07 270.899 
-0.79 -0.03 -3.10966 8.0553 0.00905976 0.00871902 -0.00015532 0.00890143 1.57499e-07 271.402 
-0.77 -0.03 -3.57771 7.26216 0.00905438 0.00874149 -0.00016439 0.00891349 1.57599e-07 271.597 
-0.95 -0.17 -0.944164 5.21302 0.00908351 0.00871011 -0.000151595 0.00890109 1.57475e-07 271.432 
-0.99 -0.15 -0.201326 4.80958 0.00904586 0.00871693 -0.000171511 0.008901 1.57197e-07 271.911 
-0.89 -0.17 -1.71602 5.76998 0.00911926 0.00867631 -0.000123107 0.00891034 1.57245e-07 272.112 
-0.97 -0.15 -0.530836 5.46806 0.00906932 0.0087097 -0.000169792 0.00890363 1.57341e-07 271.741 
-0.95 -0.15 -0.871869 5.66057 0.00907916 0.00869351 -0.000158231 0.00889979 1.57397e-07 271.527 
-0.93 -0.15 -1.16942 5.77152 0.00908051 0.00867058 -0.000140974 0.00889947 1.57367e-07 271.569 
-0.83 -0.17 -2.91831 5.72128 0.00913836 0.00871558 -0.000101121 0.00893985 1.5802e-07 271.673 
-0.91 -0.15 -1.54625 6.32883 0.00908977 0.00867825 -0.000147209 0.00890001 1.57417e-07 271.5 
-0.99 -0.13 -0.240281 5.18268 0.009052 0.00872287 -0.000191653 0.00889979 1.57426e-07 271.477 
-0.89 -0.15 -1.55605 6.01643 0.00909121 0.0086596 -0.00012521 0.00889194 1.57216e-07 271.599 
-0.97 -0.13 -0.528868 5.86724 0.00906102 0.00869409 -0.000162681 0.008886 1.57132e-07 271.565 
-0.87 -0.15 -2.05226 6.23915 0.00910133 0.0086867 -0.000123353 0.00891805 1.57327e-07 272.205 
-0.95 -0.13 -0.87749 6.15261 0.0090642 0.00867711 -0.000164185 0.00888701 1.57399e-07 271.134 
-0.77 -0.17 -4.27695 5.20332 0.00915058 0.00873491 -0.000105441 0.00895322 1.58401e-07 271.426 
-0.85 -0.15 -2.39709 6.56726 0.00910576 0.0086776 -0.000109776 0.00891197 1.57518e-07 271.691 
-0.93 -0.13 -1.32464 5.97711 0.00907889 0.00867451 -0.000159672 0.00889684 1.57198e-07 271.781 
-0.83 -0.15 -2.94038 6.19139 0.00912387 0.00871037 -0.00012013 0.00893387 1.57928e-07 271.651 
-0.91 -0.13 -1.76815 6.64292 0.00908574 0.00866945 -0.000148898 0.00890025 1.57308e-07 271.694 
-0.99 -0.11 -0.16974 5.51182 0.00904443 0.00870045 -0.000181286 0.00889053 1.57157e-07 271.658 
-0.81 -0.15 -3.29196 6.31664 0.00913584 0.00871592 -0.000109246 0.00894159 1.57826e-07 272.061 
-0.89 -0.13 -2.11507 6.08139 0.00909586 0.00864841 -0.000138316 0.00889427 1.57452e-07 271.264 
-0.97 -0.11 -0.563115 6.15552 0.00904227 0.00868392 -0.000180724 0.00888045 1.57029e-07 271.572 
-0.79 -0.15 -3.6542 5.94295 0.00913649 0.00872499 -0.000121334 0.008946 1.58113e-07 271.701 
-0.87 -0.13 -2.56751 6.8158 0.0091041 0.00867022 -0.000127361 0.00891573 1.5769e-07 271.509 
-0.95 -0.11 -0.826268 6.39791 0.00905789 0.0086719 -0.000177266 0.00888069 1.56976e-07 271.671 
-0.77 -0.15 -4.15738 5.50921 0.00914753 0.00873112 -0.000119703 0.00895111 1.58417e-07 271.335 
-0.85 -0.13 -2.91766 6.67384 0.00912465 0.00868704 -0.000129094 0.00892522 1.57753e-07 271.688 
-0.93 -0.11 -1.22505 6.51695 0.0090772 0.00867036 -0.000169792 0.00889709 1.5737e-07 271.491 
-0.75 -0.15 -4.53361 5.68754 0.00914669 0.00874105 -0.00011218 0.00896146 1.5849e-07 271.523 
-0.83 -0.13 -2.98171 6.73609 0.00913405 0.00870218 -0.000125302 0.00893929 1.57726e-07 272.163 
-0.91 -0.11 -1.58408 6.9246 0.00907827 0.00865398 -0.000156754 0.00887653 1.57049e-07 271.418 
-0.99 -0.09 0.0147186 5.83265 0.00899607 0.00868101 -0.000205341 0.00885319 1.56564e-07 271.543 
-0.81 -0.13 -3.41607 6.69754 0.00912092 0.00870701 -0.000114358 0.00892984 1.57915e-07 271.551 
-0.89 -0.11 -1.9354 6.77414 0.00908544 0.00864286 -0.000147083 0.00887975 1.57294e-07 271.094 
-0.97 -0.09 -0.515759 6.72064 0.00902525 0.00868312 -0.00019556 0.00888024 1.57173e-07 271.318 
-0.79 -0.13 -3.48645 6.23821 0.00913432 0.00873492 -0.000124256 0.00894687 1.58089e-07 271.769 
-0.87 -0.11 -2.46982 7.17175 0.00909393 0.00865832 -0.000146331 0.00890096 1.57654e-07 271.121 
-0.95 -0.09 -1.00338 6.64 0.00903952 0.00867372 -0.000182731 0.00888151 1.57192e-07 271.323 
-0.77 -0.13 -3.85553 5.94811 0.00912783 0.00871566 -0.000120263 0.00893561 1.5796e-07 271.649 
-0.85 -0.11 -2.66338 6.86892 0.00910424 0.00868831 -0.000127578 0.00890841 1.57632e-07 271.386 
-0.93 -0.09 -1.06468 6.77724 0.00903249 0.00864812 -0.000179466 0.00886059 1.56976e-07 271.056 
-0.83 -0.11 -3.0553 7.22689 0.0090916 0.00868778 -0.000126782 0.00891143 1.5751e-07 271.687 
-0.91 -0.09 -1.32985 7.27438 0.00903403 0.00863983 -0.000152635 0.0088594 1.56865e-07 271.211 
-0.99 -0.07 -0.558464 6.3007 0.008998 0.00867278 -0.000209203 0.00885099 1.56535e-07 271.526 
-0.81 -0.11 -3.39563 6.65563 0.00912565 0.00871417 -0.000129673 0.00893712 1.57829e-07 271.92 
-0.89 -0.09 -2.08256 7.34636 0.00904405 0.00864368 -0.00016182 0.00885863 1.56984e-07 270.983 
-0.97 -0.07 -0.655402 6.91197 0.00898798 0.00866575 -0.000203912 0.00885231 1.56631e-07 271.399 
-0.79 -0.11 -3.54082 6.42538 0.00912669 0.00872111 -0.000122184 0.00894108 1.58199e-07 271.404 
-0.87 -0.09 -2.39476 7.47185 0.00906239 0.00864754 -0.000156344 0.00887619 1.57291e-07 270.989 
-0.95 -0.07 -0.736341 6.81906 0.00899477 0.00867616 -0.000183786 0.0088541 1.56508e-07 271.669 
-0.77 -0.11 -3.91386 6.19874 0.00913262 0.00872015 -0.000127013 0.00894872 1.58132e-07 271.752 
-0.85 -0.09 -2.66628 7.22705 0.00906781 0.00866287 -0.000144021 0.00888036 1.57206e-07 271.264 
-0.93 -0.07 -1.25768 7.35068 0.00899602 0.00862996 -0.00018028 0.00884128 1.5651e-07 271.271 
-0.75 -0.11 -4.384 6.23119 0.00913806 0.0087566 -0.000125522 0.00896322 1.58494e-07 271.569 
-0.83 -0.09 -3.01023 7.15006 0.00909701 0.0087075 -0.000138482 0.00892514 1.57718e-07 271.747 
-0.91 -0.07 -1.68923 7.52833 0.00901699 0.00863075 -0.00017998 0.00885067 1.56529e-07 271.526 
-0.99 -0.05 0.0551712 6.75163 0.00897619 0.00866998 -0.000215636 0.00884252 1.56398e-07 271.504 
-0.81 -0.09 -3.2293 7.20638 0.00909364 0.00871151 -0.00014481 0.00891838 1.5773e-07 271.52 
-0.89 -0.07 -1.88264 7.85153 0.00903957 0.00865417 -0.000176511 0.00886195 1.56952e-07 271.14 
-0.97 -0.05 -0.46835 7.06659 0.00899984 0.00866626 -0.000211161 0.00885652 1.56725e-07 271.366 
-0.79 -0.09 -3.80948 6.74231 0.00910208 0.008716 -0.000125264 0.00892492 1.57876e-07 271.468 
-0.87 -0.07 -2.22004 7.81286 0.00903709 0.00862915 -0.000157716 0.0088593 1.56895e-07 271.156 
-0.95 -0.05 -0.638397 7.22368 0.00899895 0.00864688 -0.000198978 0.00884563 1.56463e-07 271.486 
-0.77 -0.09 -4.03893 6.69565 0.00909655 0.00872076 -0.000119343 0.00893738 1.57972e-07 271.681 
-0.85 -0.07 -2.53667 7.55869 0.00904827 0.00865521 -0.000150401 0.00887474 1.56919e-07 271.587 
-0.93 -0.05 -1.29412 7.74242 0.00900054 0.00862809 -0.000176255 0.00883726 1.56412e-07 271.318 
-0.75 -0.09 -4.35101 6.44151 0.009086 0.00875134 -0.000130363 0.00893757 1.58065e-07 271.527 
-0.83 -0.07 -3.0275 7.72108 0.00905152 0.00870101 -0.000144717 0.00889289 1.57117e-07 271.8 
-0.91 -0.05 -1.42093 7.91886 0.00900087 0.00863402 -0.000184789 0.00883976 1.56461e-07 271.31 
-0.99 -0.03 -0.112119 6.9204 0.00896435 0.00866926 -0.000233473 0.00883138 1.56343e-07 271.257 
-0.81 -0.07 -3.70905 7.72904 0.00904943 0.0087077 -0.000148211 0.00889731 1.5738e-07 271.48 
-0.89 -0.05 -1.7282 8.14874 0.00900781 0.00864376 -0.000184051 0.00884465 1.56807e-07 270.861 
-0.97 -0.03 -0.407996 7.52832 0.00896544 0.00863723 -0.000218611 0.00882452 1.56369e-07 271 