ITEM: TIMESTEP
822500
ITEM: NUMBER OF CELLS
5000
ITEM: BOX BOUNDS ss ss pp
-1 1
-0.5 0.5
-0.5 0.5
ITEM: CELLS xc yc f_U[*] f_V[*] f_Tau[1] f_Tau[2] f_Tau[3] f_Press[*] f_Mrho[*] f_Ttra[*] 
-0.99 -0.49 -0.0391208 0.131392 0.00896328 0.00874649 -1.54702e-05 0.00887246 1.56775e-07 271.767 
-0.97 -0.49 -0.0442009 0.134081 0.00894877 0.00877602 -2.12791e-05 0.00887324 1.56561e-07 272.162 
-0.95 -0.49 -0.49898 -0.106608 0.00896104 0.00874892 -3.94276e-05 0.00887784 1.57156e-07 271.274 
-0.93 -0.49 -0.669466 0.410772 0.00897603 0.00875456 -4.20592e-05 0.00889075 1.57001e-07 271.935 
-0.91 -0.49 -1.19707 0.0125665 0.00897772 0.00870827 -2.00365e-05 0.00886183 1.56859e-07 271.297 
-0.99 -0.47 -0.0319534 0.126883 0.0090109 0.0087558 -1.87017e-05 0.00889203 1.57111e-07 271.785 
-0.89 -0.49 -1.67955 0.293294 0.00902911 0.0087209 -2.22201e-05 0.00890658 1.56887e-07 272.618 
-0.97 -0.47 -0.0829262 0.624467 0.00901202 0.00878908 -3.30407e-05 0.00891075 1.57061e-07 272.443 
-0.87 -0.49 -1.93833 -0.0816133 0.00905686 0.00880878 -5.57501e-06 0.0089244 1.57606e-07 271.917 
-0.95 -0.47 -0.752005 0.864244 0.00901995 0.00876842 -3.84608e-05 0.00891267 1.57436e-07 271.853 
-0.85 -0.49 -1.86474 0.283167 0.00908013 0.00882162 -1.1067e-06 0.00894276 1.57862e-07 272.034 
-0.93 -0.47 -1.64511 0.478825 0.00902748 0.00873562 -3.33113e-05 0.00889741 1.56864e-07 272.377 
-0.83 -0.49 -1.90438 0.151606 0.00909079 0.00881607 1.02808e-05 0.00896462 1.58069e-07 272.342 
-0.91 -0.47 -1.54815 0.147752 0.00901717 0.00873283 -3.15983e-05 0.00890155 1.57195e-07 271.929 
-0.99 -0.45 -0.248749 0.445375 0.00903775 0.00877143 -3.80861e-05 0.00892178 1.57535e-07 271.959 
-0.81 -0.49 -2.17827 0.215815 0.00907153 0.00878017 1.5687e-06 0.0089247 1.57269e-07 272.51 
-0.89 -0.47 -1.91796 0.673142 0.00899302 0.00871371 -5.89114e-05 0.0088743 1.56799e-07 271.783 
-0.97 -0.45 -0.717588 0.626723 0.00905896 0.00878679 -3.98661e-05 0.00894013 1.57412e-07 272.732 
-0.79 -0.49 -2.47758 -0.103472 0.00907511 0.00875752 1.9e-05 0.00892854 1.57802e-07 271.706 
-0.87 -0.47 -2.16362 0.30348 0.00902643 0.00877336 -3.96056e-05 0.00892829 1.57598e-07 272.049 
-0.95 -0.45 -0.455204 1.50062 0.00905066 0.00878321 -4.50497e-05 0.00893653 1.57395e-07 272.652 
-0.77 -0.49 -2.37287 0.0409346 0.00907622 0.00878935 4.10063e-05 0.00893726 1.57387e-07 272.687 
-0.85 -0.47 -2.47681 0.235201 0.00906054 0.00881557 -2.02486e-05 0.00895521 1.57783e-07 272.55 
-0.93 -0.45 -0.779551 0.8125 0.00903025 0.00868992 -3.62545e-05 0.00889228 1.56968e-07 272.039 
-0.83 -0.47 -2.73507 0.179223 0.00906268 0.00879611 3.22457e-06 0.00894384 1.57693e-07 272.359 
-0.91 -0.45 -1.53616 0.609714 0.00905421 0.00877448 -1.82594e-05 0.00893679 1.57968e-07 271.67 
-0.99 -0.43 -0.501422 1.10401 0.00910497 0.00878424 -4.27966e-05 0.00896722 1.58112e-07 272.347 
-0.81 -0.47 -2.58689 0.281693 0.00907376 0.00879073 1.05091e-05 0.00893899 1.57654e-07 272.278 
-0.89 -0.45 -1.83426 0.637451 0.00904983 0.00872243 -5.82673e-05 0.00890334 1.5712e-07 272.115 
-0.97 -0.43 -0.717099 0.702928 0.00911617 0.00876373 -3.43746e-05 0.0089573 1.57868e-07 272.466 
-0.79 -0.47 -2.88598 0.515723 0.00908534 0.00871893 2.35424e-05 0.00891135 1.57288e-07 272.069 
-0.87 -0.45 -1.9269 0.585138 0.00904537 0.00876133 -4.41542e-05 0.00891143 1.57337e-07 271.986 
-0.95 -0.43 -0.749032 1.1891 0.00911621 0.00879085 -2.98766e-05 0.00895733 1.58021e-07 272.204 
-0.77 -0.47 -2.92358 -0.210527 0.00909185 0.00880728 2.7344e-05 0.00894838 1.57767e-07 272.37 
-0.85 -0.45 -2.40956 0.312517 0.00903489 0.00878053 -3.19546e-05 0.00892685 1.5762e-07 271.968 
-0.93 -0.43 -0.920436 1.43069 0.00912736 0.00871118 -4.73093e-05 0.00893371 1.57543e-07 272.309 
-0.75 -0.47 -2.84762 0.433451 0.00909965 0.00880546 2.40485e-05 0.00895466 1.57599e-07 272.851 
-0.83 -0.45 -2.3988 0.574788 0.00906086 0.00877365 -2.58707e-05 0.00892531 1.57502e-07 272.125 
-0.91 -0.43 -1.56485 1.29412 0.00912221 0.0087438 -4.05657e-05 0.00893046 1.57487e-07 272.307 
-0.99 -0.41 -0.163894 1.67273 0.00911552 0.00878526 -5.51163e-05 0.00897509 1.5832e-07 272.229 
-0.81 -0.45 -2.44817 0.484634 0.0090893 0.00876629 -7.24894e-06 0.0089405 1.57354e-07 272.843 
-0.89 -0.43 -1.8296 0.960172 0.00911652 0.00874331 -2.87633e-05 0.00893073 1.57577e-07 272.159 
-0.97 -0.41 -0.816443 1.05092 0.00911902 0.00876372 -5.96123e-05 0.00894561 1.57847e-07 272.147 
-0.79 -0.45 -2.82779 0.732132 0.00909671 0.00872761 1.71365e-05 0.00891426 1.57859e-07 271.173 
-0.87 -0.43 -1.88563 0.609807 0.00910946 0.00875747 -5.38424e-05 0.00893798 1.57695e-07 272.178 
-0.95 -0.41 -1.21488 1.23649 0.00913112 0.00877526 -2.92718e-05 0.00894825 1.57918e-07 272.105 
-0.77 -0.45 -3.41931 0.0330362 0.00912489 0.0088028 9.88946e-06 0.00895501 1.5792e-07 272.307 
-0.85 -0.43 -2.11523 0.924843 0.00910472 0.00878434 -3.12311e-05 0.00895274 1.57859e-07 272.344 
-0.93 -0.41 -1.62714 2.04626 0.00912276 0.00871686 -2.68356e-05 0.00893571 1.57647e-07 272.191 
-0.75 -0.45 -3.68093 0.528985 0.00913755 0.00881906 8.91679e-06 0.00898317 1.58436e-07 272.273 
-0.83 -0.43 -2.84262 0.957088 0.0090917 0.00877388 -3.69712e-05 0.00895194 1.57658e-07 272.666 
-0.91 -0.41 -1.18704 1.33974 0.00913173 0.0087499 -4.04502e-05 0.00894602 1.57716e-07 272.387 
-0.99 -0.39 -0.382668 2.24335 0.00909644 0.008772 -4.85387e-05 0.00895129 1.57874e-07 272.274 
-0.81 -0.43 -3.22264 0.30666 0.00908567 0.00872874 -8.72749e-06 0.00894706 1.57718e-07 272.415 
-0.89 -0.41 -1.50357 1.20919 0.00912688 0.00876147 -4.22318e-05 0.00894959 1.57625e-07 272.651 
-0.97 -0.39 -0.981021 1.68551 0.00909203 0.00878251 -3.77134e-05 0.00894804 1.57875e-07 272.172 
-0.79 -0.43 -2.76487 0.686026 0.00910613 0.00874683 -1.04819e-05 0.00894597 1.57832e-07 272.184 
-0.87 -0.41 -2.23128 0.874918 0.00911063 0.00874693 -2.048e-05 0.00893843 1.57514e-07 272.503 
-0.95 -0.39 -1.30123 1.46807 0.00907952 0.00873843 -4.6189e-05 0.00890954 1.57166e-07 272.224 
-0.77 -0.43 -2.99324 0.826462 0.00913199 0.00877927 -3.8079e-06 0.008973 1.57825e-07 273.018 
-0.85 -0.41 -2.16754 1.10959 0.00912781 0.00878458 -4.25454e-05 0.00896317 1.58121e-07 272.209 
-0.93 -0.39 -0.491503 1.89702 0.00911407 0.00873679 -3.03834e-05 0.00892288 1.57425e-07 272.184 
-0.83 -0.41 -2.1599 1.40906 0.00913871 0.00876052 -2.03284e-05 0.0089625 1.57802e-07 272.74 
-0.91 -0.39 -1.09321 1.75747 0.00909954 0.00873723 -4.74073e-05 0.0089251 1.57434e-07 272.235 
-0.99 -0.37 -0.0800851 2.80521 0.0091225 0.00877814 -5.06903e-05 0.00899193 1.58975e-07 271.615 
-0.81 -0.41 -2.45056 0.874167 0.00912276 0.00872639 -1.37398e-05 0.0089524 1.58005e-07 272.081 
-0.89 -0.39 -1.16811 1.26143 0.00910589 0.00875837 -2.9201e-05 0.0089531 1.57815e-07 272.431 
-0.97 -0.37 -0.356426 2.03032 0.00912279 0.00877364 -4.20772e-05 0.00897303 1.58344e-07 272.124 
-0.79 -0.41 -3.20654 0.413725 0.00914195 0.00876021 -3.10069e-05 0.00895935 1.57996e-07 272.308 
-0.87 -0.39 -1.13502 1.15596 0.0091277 0.00877806 -5.88349e-05 0.00896741 1.57765e-07 272.952 
-0.95 -0.37 -0.654257 1.69667 0.00912851 0.00873626 -4.77791e-05 0.00892659 1.57607e-07 271.983 
-0.77 -0.41 -4.09953 1.15587 0.00914339 0.00875547 -1.92757e-05 0.00895604 1.58067e-07 272.086 
-0.85 -0.39 -1.93247 1.30014 0.00914826 0.00877142 -5.32303e-05 0.00898247 1.58701e-07 271.798 
-0.93 -0.37 -1.28668 1.6058 0.00913949 0.00873394 -5.98915e-05 0.00894867 1.5817e-07 271.684 
-0.75 -0.41 -4.0941 1.73812 0.00917945 0.0087997 -6.79717e-06 0.00900504 1.58644e-07 272.579 
-0.83 -0.39 -2.2712 1.68089 0.00914744 0.00873107 -3.96912e-05 0.00896351 1.58306e-07 271.901 
-0.91 -0.37 -1.14752 1.91159 0.00915869 0.00874506 -3.88092e-05 0.0089667 1.58185e-07 272.207 
-0.99 -0.35 -0.0454854 2.83041 0.00906141 0.00875868 -6.8208e-05 0.00894225 1.58304e-07 271.26 
-0.81 -0.39 -2.42134 1.20978 0.00917743 0.00874625 -1.72189e-05 0.0089913 1.58168e-07 272.981 
-0.89 -0.37 -1.37919 1.68657 0.00916732 0.00874596 -4.05404e-05 0.00896396 1.58105e-07 272.261 
-0.97 -0.35 -0.202627 2.38096 0.00908939 0.00875883 -6.27685e-05 0.00893888 1.58218e-07 271.305 
-0.79 -0.39 -3.39306 1.68997 0.00916378 0.0087566 -3.00672e-05 0.00898332 1.58254e-07 272.592 
-0.87 -0.37 -1.94355 1.88016 0.00918107 0.00878958 -5.30519e-05 0.00898062 1.58231e-07 272.55 
-0.95 -0.35 -0.504098 2.19707 0.00910912 0.00874199 -6.2246e-05 0.00892526 1.57929e-07 271.388 
-0.77 -0.39 -4.17194 1.40812 0.00916689 0.00875788 -3.31227e-05 0.00898766 1.58841e-07 271.716 
-0.85 -0.37 -2.27493 1.61328 0.00914306 0.00877126 -4.89422e-05 0.00896546 1.58499e-07 271.63 
-0.93 -0.35 -1.06659 2.04566 0.00912192 0.00872301 -6.03467e-05 0.00893072 1.58026e-07 271.386 
-0.83 -0.37 -2.49795 2.00465 0.0091469 0.00872736 -4.01533e-05 0.0089495 1.57911e-07 272.155 
-0.91 -0.35 -1.21514 1.86541 0.00911868 0.00874195 -5.24034e-05 0.00892637 1.57818e-07 271.612 
-0.81 -0.37 -3.14381 1.39201 0.00915357 0.00872731 -3.54963e-05 0.00896347 1.58286e-07 271.935 
-0.89 -0.35 -1.51546 2.16393 0.0091379 0.00875542 -6.70248e-05 0.00894878 1.57973e-07 272.026 
-0.79 -0.37 -3.64019 2.54426 0.00915679 0.00876522 -3.53059e-05 0.00898304 1.58384e-07 272.36 
-0.87 -0.35 -2.19464 2.16493 0.00913937 0.00877715 -5.01985e-05 0.00897266 1.58531e-07 271.792 
-0.77 -0.37 -3.96816 2.16902 0.00915682 0.00875215 -2.4854e-05 0.00897962 1.58621e-07 271.849 
-0.85 -0.35 -2.28984 2.30025 0.00917435 0.00876218 -5.27996e-05 0.00898745 1.58752e-07 271.862 
-0.83 -0.35 -2.94004 2.45162 0.00919275 0.0087207 -4.51139e-05 0.00898033 1.5884e-07 271.496 
-0.81 -0.35 -3.75466 2.17875 0.00919471 0.00872036 -4.69974e-05 0.00897484 1.58365e-07 272.144 
-0.79 -0.35 -3.83033 2.70596 0.00921863 0.00876357 -2.35091e-05 0.00898919 1.5863e-07 272.122 
-0.77 -0.35 -3.56313 2.51795 0.00921521 0.0087662 -3.66493e-05 0.00900007 1.58815e-07 272.134 
-0.75 -0.35 -4.05362 2.42877 0.00920659 0.00876647 -2.39556e-05 0.00900932 1.59167e-07 271.812 
-0.75 -0.49 -2.6422 0.110614 0.00907259 0.00879896 2.17462e-05 0.00893093 1.57251e-07 272.73 
-0.75 -0.43 -3.94181 0.799589 0.00913845 0.00881776 1.09967e-05 0.00898379 1.58367e-07 272.412 
-0.75 -0.39 -4.86569 1.76929 0.00916781 0.00878537 -1.6347e-05 0.00900423 1.58805e-07 272.278 
-0.75 -0.37 -3.98311 1.8894 0.00915029 0.00876627 -2.89613e-05 0.00897307 1.58291e-07 272.218 
-0.77 -0.33 -3.81505 2.68344 0.00917139 0.00875409 -3.6982e-05 0.00896482 1.58466e-07 271.666 
-0.73 -0.49 -2.88773 0.349363 0.0090743 0.00880247 1.47423e-05 0.00895171 1.57552e-07 272.843 
-0.73 -0.47 -3.17879 0.288823 0.00911183 0.00880885 5.98396e-06 0.00898087 1.58348e-07 272.356 
-0.73 -0.45 -3.72279 0.6635 0.00913572 0.00881205 9.24581e-06 0.00897014 1.5851e-07 271.752 
-0.73 -0.43 -4.68431 1.33457 0.00913634 0.00882101 8.19565e-06 0.00898911 1.58607e-07 272.159 
-0.73 -0.41 -4.54734 1.49519 0.00918 0.00882361 7.74498e-06 0.00901637 1.58901e-07 272.48 
-0.73 -0.39 -4.67827 1.88325 0.00918934 0.00880263 -4.2513e-06 0.00900624 1.58531e-07 272.809 
-0.73 -0.37 -4.48262 1.90625 0.00916452 0.00881473 -3.3421e-05 0.00899517 1.58843e-07 271.939 
-0.73 -0.35 -4.43153 2.38077 0.00918812 0.00881109 -1.35839e-05 0.00900791 1.58569e-07 272.794 
-0.81 -0.29 -3.13351 3.58722 0.00915302 0.00869994 -7.74244e-05 0.00892832 1.57737e-07 271.81 
-0.89 -0.27 -1.83542 3.762 0.00909136 0.00870781 -9.23149e-05 0.00890004 1.57403e-07 271.525 
-0.97 -0.25 -0.614929 3.73286 0.00910535 0.00871581 -0.000103883 0.00891396 1.57424e-07 271.913 
-0.83 -0.29 -2.89318 3.43865 0.00913605 0.00871681 -8.35587e-05 0.00893891 1.57216e-07 273.035 
-0.91 -0.27 -1.45832 4.0877 0.00909052 0.0086902 -0.000101663 0.00890129 1.57385e-07 271.593 
-0.99 -0.25 -0.463052 3.74023 0.00908619 0.00872228 -0.000111798 0.00892151 1.57931e-07 271.27 
-0.79 -0.29 -3.53563 3.52198 0.00917494 0.00874264 -6.31741e-05 0.00895906 1.58283e-07 271.805 
-0.87 -0.27 -2.13214 3.67141 0.0091284 0.00877149 -8.97475e-05 0.00895369 1.57872e-07 272.35 
-0.95 -0.25 -0.316569 3.97577 0.00911661 0.00874921 -0.000108965 0.00894283 1.58149e-07 271.543 
-0.77 -0.29 -4.03401 3.24536 0.00918174 0.00875495 -5.2829e-05 0.00896675 1.5876e-07 271.222 
-0.85 -0.27 -2.21459 3.578 0.00913728 0.00873407 -6.47098e-05 0.00894012 1.57766e-07 272.119 
-0.93 -0.25 -0.559236 4.0848 0.00910265 0.00869351 -8.91046e-05 0.00891176 1.57602e-07 271.539 
-0.75 -0.29 -4.85407 3.48195 0.0091808 0.00875624 -5.17572e-05 0.00899038 1.5865e-07 272.126 
-0.83 -0.27 -2.83987 3.70504 0.00917476 0.00875437 -6.37881e-05 0.00897485 1.58518e-07 271.88 
-0.91 -0.25 -1.04989 3.92486 0.0091107 0.00871361 -9.62544e-05 0.00891933 1.57569e-07 271.826 
-0.99 -0.23 0.0289596 4.40346 0.00904507 0.00871932 -0.000128809 0.00891385 1.57362e-07 272.017 
-0.81 -0.27 -3.24729 3.89298 0.00915886 0.0087023 -9.41246e-05 0.00892944 1.57641e-07 272.01 
-0.89 -0.25 -1.4907 4.12975 0.00910511 0.0086938 -0.00011431 0.0089081 1.57479e-07 271.64 
-0.97 -0.23 -0.074432 3.48051 0.00907103 0.0087242 -0.000129387 0.0089121 1.57843e-07 271.134 
-0.79 -0.27 -3.78735 4.10938 0.00918029 0.00872491 -8.54752e-05 0.00893404 1.58008e-07 271.518 
-0.87 -0.25 -1.88363 4.36691 0.00913492 0.00874719 -9.37002e-05 0.00895432 1.5797e-07 272.201 
-0.95 -0.23 -0.402506 4.11703 0.00909392 0.00872136 -0.000115727 0.00891743 1.57597e-07 271.721 
-0.77 -0.27 -4.14027 3.7387 0.00918302 0.00873876 -5.08452e-05 0.00895371 1.58269e-07 271.668 
-0.85 -0.25 -2.32828 4.08338 0.00916333 0.00873946 -0.000113532 0.00895072 1.58036e-07 271.977 
-0.93 -0.23 -0.792206 4.18667 0.00911307 0.00869608 -0.000116446 0.00891474 1.57535e-07 271.745 
-0.83 -0.25 -3.1735 4.451 0.00917708 0.00872602 -9.14454e-05 0.00894552 1.5825e-07 271.451 
-0.91 -0.23 -1.1521 4.79905 0.00912826 0.00870684 -0.000100284 0.00892991 1.57455e-07 272.346 
-0.99 -0.21 0.353717 3.80603 0.00917061 0.00874408 -0.000119931 0.0089744 1.5856e-07 271.796 
-0.81 -0.25 -3.79241 4.21628 0.00917789 0.00872383 -7.10392e-05 0.00896111 1.58249e-07 271.927 
-0.89 -0.23 -1.80521 4.48155 0.00915737 0.00870349 -0.000111919 0.00894428 1.57923e-07 271.975 
-0.97 -0.21 0.429057 3.90926 0.00914215 0.00869924 -0.000126719 0.00893767 1.58131e-07 271.417 
-0.79 -0.25 -4.21398 4.6422 0.00916079 0.00868949 -8.2115e-05 0.00892992 1.58133e-07 271.178 
-0.87 -0.23 -2.09079 4.41356 0.00917384 0.00874117 -0.000135808 0.00895888 1.58464e-07 271.49 
-0.95 -0.21 -0.320124 4.5493 0.0091159 0.00870022 -0.000124476 0.00892101 1.57458e-07 272.069 
-0.77 -0.25 -4.55623 3.64851 0.00917008 0.00872311 -7.1684e-05 0.00894565 1.58132e-07 271.658 
-0.85 -0.23 -2.60215 5.00925 0.00915578 0.00874148 -9.62664e-05 0.00895598 1.58011e-07 272.179 
-0.93 -0.21 -0.858304 5.02234 0.00912333 0.00869408 -0.000116093 0.00890764 1.56979e-07 272.49 
-0.83 -0.23 -3.19802 4.75492 0.00913249 0.00869485 -0.00010044 0.0089278 1.57509e-07 272.188 
-0.91 -0.21 -1.11542 4.59945 0.00914442 0.00871397 -0.000130161 0.00893658 1.57652e-07 272.208 
-0.99 -0.19 -0.0109975 4.09921 0.00905564 0.00871903 -0.000140014 0.00889947 1.57264e-07 271.747 
-0.81 -0.23 -3.34306 4.4221 0.00917769 0.00871379 -0.000106375 0.00896099 1.58014e-07 272.327 
-0.89 -0.21 -1.53394 5.25541 0.00914685 0.00872965 -0.000131586 0.00896553 1.58057e-07 272.391 
-0.97 -0.19 -0.734078 4.16818 0.00910381 0.0087073 -0.000141657 0.00890934 1.57839e-07 271.058 
-0.79 -0.23 -3.33643 4.8661 0.00920181 0.00870356 -8.48522e-05 0.00895363 1.57925e-07 272.257 
-0.87 -0.21 -2.35679 4.87185 0.00912857 0.0086832 -0.000126134 0.00891202 1.57547e-07 271.642 
-0.95 -0.19 -0.783915 5.08106 0.00910755 0.00870513 -0.000109378 0.00890996 1.57561e-07 271.554 
-0.77 -0.23 -3.72062 4.34172 0.00919171 0.00872528 -8.74095e-05 0.00895331 1.58353e-07 271.512 
-0.85 -0.21 -3.37988 5.65218 0.00915806 0.00873307 -9.37938e-05 0.00894878 1.58055e-07 271.886 
-0.93 -0.19 -0.451722 5.07784 0.00912725 0.00870195 -0.000121747 0.00892639 1.57925e-07 271.428 
-0.75 -0.23 -4.454 3.79803 0.00917575 0.00874696 -8.31219e-05 0.00896581 1.58702e-07 271.293 
-0.83 -0.21 -3.52212 5.12071 0.00916179 0.00872323 -9.89933e-05 0.00895028 1.58073e-07 271.9 
-0.91 -0.19 -1.16013 5.47061 0.00913237 0.00870327 -0.000132832 0.00892025 1.57575e-07 271.844 
-0.81 -0.21 -4.13902 4.71245 0.0091249 0.00869229 -9.26868e-05 0.00892343 1.57641e-07 271.827 
-0.89 -0.19 -1.73262 5.3122 0.00914356 0.00872661 -0.000122703 0.00894787 1.57898e-07 272.128 
-0.79 -0.21 -4.38917 4.73419 0.00910797 0.00869264 -9.60136e-05 0.00891168 1.57713e-07 271.345 
-0.87 -0.19 -2.06633 5.64373 0.00913956 0.00869741 -0.000123778 0.00892914 1.57872e-07 271.603 
-0.77 -0.21 -4.20266 4.93545 0.00913365 0.00871669 -8.51925e-05 0.00894611 1.58199e-07 271.558 
-0.85 -0.19 -2.29423 5.68595 0.00911294 0.00867873 -0.000124595 0.0088986 1.5785e-07 270.712 
-0.75 -0.21 -4.69504 4.56045 0.00915601 0.00875377 -9.63096e-05 0.00897945 1.58728e-07 271.66 
-0.83 -0.19 -2.46093 5.6385 0.00911329 0.00871477 -7.13935e-05 0.00892526 1.57571e-07 272.004 
-0.81 -0.19 -3.33958 5.04308 0.00912273 0.00869848 -9.12586e-05 0.008928 1.5785e-07 271.607 
-0.79 -0.19 -3.40589 5.12534 0.00913755 0.0086949 -9.82174e-05 0.00893166 1.58117e-07 271.26 
-0.77 -0.19 -3.93435 4.91295 0.0091449 0.00873064 -0.000115803 0.00895824 1.58784e-07 270.924 
-0.99 -0.33 0.407615 2.67932 0.00908724 0.00876411 -7.72282e-05 0.0089351 1.58041e-07 271.494 
-0.97 -0.33 0.104444 2.81975 0.00911087 0.00875831 -9.51261e-05 0.00894756 1.57833e-07 272.231 
-0.91 -0.33 -0.93481 2.49414 0.00915208 0.00873975 -7.34796e-05 0.00893902 1.57813e-07 272.006 
-0.99 -0.31 -0.245792 2.8631 0.0091225 0.00875711 -7.98151e-05 0.00895691 1.58357e-07 271.613 
-0.97 -0.31 -0.357841 2.46492 0.00912364 0.00875848 -7.60293e-05 0.0089608 1.58027e-07 272.299 
-0.87 -0.33 -2.46391 2.50642 0.00915274 0.00877938 -7.52009e-05 0.00896979 1.5885e-07 271.159 
-0.95 -0.31 -0.943543 3.07413 0.00911425 0.00870813 -8.96752e-05 0.00892524 1.57649e-07 271.869 
-0.85 -0.33 -2.42016 2.2801 0.00915065 0.0087498 -6.56035e-05 0.0089737 1.5839e-07 272.066 
-0.93 -0.31 -1.0916 3.02621 0.00913725 0.00871633 -9.10862e-05 0.00892043 1.5742e-07 272.118 
-0.91 -0.31 -1.46435 2.91719 0.00916036 0.00873323 -6.03425e-05 0.00894262 1.57758e-07 272.21 
-0.99 -0.29 -0.0693238 2.75047 0.00904565 0.00874518 -0.000103496 0.00891473 1.57713e-07 271.437 
-0.81 -0.33 -3.06977 3.17154 0.00915692 0.0087113 -4.97224e-05 0.00895341 1.57623e-07 272.772 
-0.89 -0.31 -1.54267 3.37522 0.00916242 0.00874295 -7.47793e-05 0.00895748 1.58304e-07 271.721 
-0.97 -0.29 -0.33537 3.44782 0.00907736 0.00874684 -9.45809e-05 0.00891365 1.57579e-07 271.636 
-0.87 -0.31 -1.87755 3.28318 0.00915771 0.0087674 -6.54766e-05 0.00897811 1.58615e-07 271.813 
-0.95 -0.29 -0.505532 3.16935 0.00909528 0.00870484 -8.53009e-05 0.00891277 1.57181e-07 272.296 
-0.85 -0.31 -2.86195 2.44544 0.00912945 0.00874403 -5.76408e-05 0.00894443 1.58041e-07 271.778 
-0.93 -0.29 -1.21285 3.30484 0.00910543 0.00873425 -9.52146e-05 0.00891919 1.57519e-07 271.908 
-0.83 -0.31 -3.1632 3.2631 0.00913812 0.00872186 -5.78879e-05 0.00894259 1.5763e-07 272.43 
-0.91 -0.29 -1.5883 3.3907 0.00909904 0.0086901 -9.40178e-05 0.00890457 1.57346e-07 271.761 
-0.99 -0.27 -0.0953584 3.06504 0.00909119 0.00874282 -0.000110165 0.00893187 1.57644e-07 272.08 
-0.81 -0.31 -3.23071 3.34692 0.00915631 0.00871031 -5.2086e-05 0.00894699 1.57618e-07 272.584 
-0.89 -0.29 -1.92972 3.64881 0.009127 0.00873462 -7.45496e-05 0.00892624 1.57997e-07 271.3 
-0.97 -0.27 -0.557229 3.93154 0.00905638 0.00871795 -9.80219e-05 0.00890509 1.57193e-07 272.042 
-0.79 -0.31 -3.49298 2.92164 0.00914996 0.00874964 -5.77177e-05 0.00895523 1.58377e-07 271.528 
-0.87 -0.29 -2.19461 3.62098 0.00912136 0.00875117 -4.65995e-05 0.00893588 1.57918e-07 271.729 
-0.95 -0.27 -0.872203 3.46997 0.00907438 0.00872292 -0.00010269 0.0088936 1.57115e-07 271.825 
-0.77 -0.31 -3.98013 2.92701 0.00916768 0.00876077 -4.52927e-05 0.00896315 1.58953e-07 270.784 
-0.85 -0.29 -2.51112 3.2775 0.00915617 0.00875439 -6.10682e-05 0.00896445 1.58474e-07 271.642 
-0.93 -0.27 -1.17751 3.38182 0.00908391 0.0087218 -9.81382e-05 0.00891103 1.57294e-07 272.048 
-0.95 -0.33 0.019531 2.38928 0.00912982 0.00872333 -6.97624e-05 0.0089354 1.58089e-07 271.421 
-0.93 -0.33 -0.53119 2.7438 0.00914048 0.00872363 -5.61397e-05 0.00893335 1.57729e-07 271.978 
-0.89 -0.33 -1.99827 2.74983 0.00914821 0.00874042 -5.461e-05 0.00894621 1.58037e-07 271.839 
-0.83 -0.33 -2.59757 2.89333 0.0091502 0.00872649 -5.42903e-05 0.00896035 1.58288e-07 271.837 
-0.75 -0.31 -4.38525 2.89122 0.00918339 0.00874484 -3.80083e-05 0.00898215 1.58641e-07 271.891 
-0.75 -0.27 -4.38968 4.25206 0.00918099 0.00876114 -5.81278e-05 0.00895539 1.58223e-07 271.798 
-0.75 -0.25 -4.2052 4.14525 0.00919999 0.00876916 -5.65467e-05 0.00898099 1.58574e-07 271.972 
-0.75 -0.19 -4.3733 4.81467 0.00913803 0.00873554 -0.000106471 0.00895895 1.58657e-07 271.161 
-0.79 -0.33 -3.68971 2.52441 0.00916119 0.00875499 -3.22748e-05 0.00895882 1.58169e-07 271.995 
-0.75 -0.33 -3.94126 2.58884 0.00918109 0.0087512 -2.91025e-05 0.00897923 1.58597e-07 271.878 
-0.81 -0.17 -3.48372 5.87158 0.00913758 0.00870948 -9.53155e-05 0.00892545 1.58027e-07 271.225 
-0.79 -0.17 -4.31647 5.27493 0.00912416 0.00872503 -0.000121077 0.00893995 1.58151e-07 271.452 
-0.75 -0.17 -4.55878 5.60394 0.0091555 0.00871956 -0.000116906 0.00895059 1.5827e-07 271.572 
-0.73 -0.31 -4.55819 3.23127 0.00917915 0.00881198 -5.14079e-05 0.00901124 1.58858e-07 272.398 
-0.73 -0.29 -4.89762 2.89092 0.00919517 0.00881026 -4.58115e-05 0.00901661 1.5939e-07 271.652 
-0.73 -0.27 -4.99166 2.7282 0.00917688 0.00878872 -6.6565e-05 0.00899893 1.58756e-07 272.202 
-0.73 -0.25 -4.22477 3.44979 0.0092208 0.00878261 -7.07004e-05 0.00901647 1.59188e-07 271.993 
-0.73 -0.23 -4.62962 3.74738 0.00918087 0.00877469 -7.08141e-05 0.00898634 1.58719e-07 271.885 
-0.73 -0.21 -5.28262 3.89291 0.00916927 0.00876536 -8.49991e-05 0.00896362 1.58129e-07 272.209 
-0.73 -0.19 -4.60018 4.72976 0.00914566 0.00877152 -8.04997e-05 0.00897466 1.58541e-07 271.836 
-0.79 -0.05 -3.07326 7.54175 0.00905414 0.00870528 -0.000147007 0.00887444 1.57183e-07 271.123 
-0.87 -0.03 -2.60052 9.00053 0.00899258 0.00859263 -0.000187918 0.00881718 1.55792e-07 271.779 
-0.83 -0.05 -3.23104 7.79851 0.00901775 0.00867284 -0.000138584 0.00888022 1.5697e-07 271.667 
-0.91 -0.03 -1.78784 8.50375 0.00899532 0.00863068 -0.000182454 0.00882802 1.55941e-07 271.852 
-0.81 -0.05 -2.66991 7.99251 0.00905401 0.00869395 -0.000135272 0.00888835 1.57364e-07 271.235 
-0.89 -0.03 -2.20538 8.42738 0.00899346 0.00864397 -0.000165914 0.00884729 1.56271e-07 271.871 
-0.77 -0.05 -3.53918 7.06529 0.00907456 0.00874852 -0.000138734 0.00892334 1.57866e-07 271.437 
-0.85 -0.03 -2.30661 7.78191 0.0089868 0.00864049 -0.000167684 0.00883478 1.56461e-07 271.156 
-0.75 -0.05 -3.56675 6.48889 0.00906986 0.0087536 -0.000170489 0.00893196 1.57744e-07 271.909 
-0.83 -0.03 -2.32664 8.01765 0.00901036 0.00867252 -0.000168444 0.00885846 1.56996e-07 270.956 
-0.81 -0.03 -3.24652 7.93165 0.0090023 0.00867818 -0.000151059 0.00885764 1.57068e-07 270.808 
-0.79 -0.03 -3.0724 8.37875 0.00905105 0.00871936 -0.000152895 0.00890857 1.57725e-07 271.23 
-0.77 -0.03 -3.5097 7.03207 0.00905244 0.00874041 -0.000158148 0.0089101 1.576e-07 271.492 
-0.95 -0.17 -0.742564 5.04136 0.00906805 0.00870578 -0.000151389 0.00888698 1.57416e-07 271.103 
-0.99 -0.15 -0.0904265 4.27048 0.00907293 0.0087153 -0.000163711 0.00891264 1.57405e-07 271.905 
-0.89 -0.17 -1.48286 5.61808 0.00911963 0.00870146 -0.000125961 0.00891908 1.57402e-07 272.108 
-0.97 -0.15 -0.637111 5.42851 0.00909443 0.00868222 -0.000168183 0.0088996 1.57236e-07 271.799 
-0.95 -0.15 -1.11802 5.47099 0.00909312 0.00870614 -0.000176261 0.00892249 1.57771e-07 271.575 
-0.93 -0.15 -1.39669 5.40635 0.00907417 0.00868403 -0.000158262 0.0089051 1.57599e-07 271.341 
-0.83 -0.17 -2.87561 5.97209 0.00911404 0.00871114 -8.96748e-05 0.00891421 1.57654e-07 271.524 
-0.91 -0.15 -1.45132 6.02678 0.00909463 0.0087046 -0.000156425 0.00889958 1.57452e-07 271.426 
-0.99 -0.13 -0.425029 4.7934 0.00906443 0.00871833 -0.000179867 0.00891318 1.57697e-07 271.418 
-0.89 -0.15 -1.31258 5.98216 0.00910695 0.00867144 -0.000130081 0.00890552 1.5751e-07 271.507 
-0.97 -0.13 -0.610992 5.71728 0.00909406 0.00869092 -0.000163275 0.00890344 1.57369e-07 271.688 
-0.87 -0.15 -1.7352 6.54463 0.00911361 0.00869473 -0.000109024 0.00893269 1.57643e-07 272.105 
-0.95 -0.13 -0.911265 6.17282 0.00910316 0.00868227 -0.000186531 0.00890613 1.5729e-07 271.906 
-0.77 -0.17 -4.21413 5.28482 0.00913062 0.00871671 -0.000111605 0.00894184 1.58129e-07 271.548 
-0.85 -0.15 -2.52191 6.40678 0.00910988 0.00864142 -0.000106895 0.00889039 1.57279e-07 271.445 
-0.93 -0.13 -1.44803 5.76691 0.00911542 0.00868404 -0.00015911 0.00891595 1.57475e-07 271.886 
-0.83 -0.15 -3.11357 6.03144 0.00913138 0.0087135 -0.000109624 0.00893391 1.58047e-07 271.448 
-0.91 -0.13 -1.88247 5.98373 0.00911452 0.00870716 -0.000165011 0.00893216 1.5792e-07 271.613 
-0.99 -0.11 -0.119107 5.34121 0.00906209 0.00869142 -0.000186626 0.00889365 1.56978e-07 272.065 
-0.81 -0.15 -3.40428 6.59137 0.00914128 0.00873588 -0.000115946 0.00894619 1.58181e-07 271.591 
-0.89 -0.13 -2.65022 6.01455 0.00911081 0.00864388 -0.000145105 0.008899 1.57915e-07 270.613 
-0.97 -0.11 -0.480956 5.93094 0.00906337 0.00870715 -0.000192874 0.00891336 1.57524e-07 271.723 
-0.79 -0.15 -3.86509 5.32523 0.00915394 0.00873979 -0.000122541 0.0089534 1.58282e-07 271.635 
-0.87 -0.13 -2.57106 6.71167 0.00911326 0.00865727 -0.000122276 0.0089173 1.57861e-07 271.262 
-0.95 -0.11 -0.768163 6.35132 0.00906192 0.00866056 -0.000176008 0.00888646 1.57003e-07 271.801 
-0.77 -0.15 -4.06917 5.26761 0.00916127 0.00871528 -0.000134049 0.00894841 1.58412e-07 271.261 
-0.85 -0.13 -2.55591 6.84494 0.00913028 0.0086654 -0.000105006 0.00890721 1.57723e-07 271.191 
-0.93 -0.11 -1.15527 6.31944 0.00908579 0.00868766 -0.000178331 0.00891973 1.57931e-07 271.215 
-0.75 -0.15 -4.0703 5.6066 0.00912806 0.00870665 -0.000114254 0.00893462 1.58274e-07 271.08 
-0.83 -0.13 -2.59162 6.4807 0.00914762 0.00869572 -0.000127655 0.00894195 1.57938e-07 271.879 
-0.91 -0.11 -1.93257 6.65176 0.00907993 0.00869179 -0.000164538 0.00890921 1.57607e-07 271.453 
-0.99 -0.09 0.193013 5.48752 0.00902042 0.00868301 -0.000219693 0.00885582 1.56233e-07 272.198 
-0.81 -0.13 -3.15133 7.05274 0.00913068 0.00873526 -0.000117066 0.00894588 1.58416e-07 271.178 
-0.89 -0.11 -2.58137 7.13118 0.00907351 0.0086265 -0.000142464 0.00886039 1.57098e-07 270.84 
-0.97 -0.09 -0.428472 6.81937 0.00904836 0.00869665 -0.000199878 0.00889721 1.57233e-07 271.732 
-0.79 -0.13 -3.00784 5.704 0.00912289 0.0087504 -0.000119429 0.00894079 1.57898e-07 271.913 
-0.87 -0.11 -3.16881 6.5643 0.00906566 0.00862182 -0.000121192 0.00887121 1.57246e-07 270.915 
-0.95 -0.09 -0.70007 6.53834 0.00906774 0.00867215 -0.000184208 0.00889411 1.56975e-07 272.084 
-0.77 -0.13 -3.77522 5.41337 0.00909772 0.0086873 -0.000129444 0.00890767 1.57549e-07 271.506 
-0.85 -0.11 -3.17266 6.61199 0.00911541 0.00868729 -0.000136764 0.00890656 1.57698e-07 271.215 
-0.93 -0.09 -0.95189 6.83838 0.00904879 0.0086627 -0.000192107 0.00888362 1.57138e-07 271.481 
-0.83 -0.11 -3.31061 7.32398 0.00911266 0.00868778 -0.000132587 0.00891408 1.57616e-07 271.585 
-0.91 -0.09 -1.52082 7.32408 0.00904712 0.00865677 -0.000131975 0.00888019 1.56929e-07 271.737 
-0.99 -0.07 -0.644907 6.29403 0.00903133 0.00867994 -0.000203422 0.00885888 1.56747e-07 271.4 
-0.81 -0.11 -3.49529 6.29722 0.00913264 0.00872902 -0.000118725 0.00895323 1.57865e-07 272.348 
-0.89 -0.09 -1.82891 7.76531 0.00904246 0.00862628 -0.000145652 0.0088585 1.56945e-07 271.046 
-0.97 -0.07 -0.528045 6.77984 0.00899746 0.00866194 -0.00020817 0.00884912 1.56423e-07 271.662 
-0.79 -0.11 -3.4006 6.14961 0.00912516 0.00873145 -0.000109974 0.00894704 1.58295e-07 271.421 
-0.87 -0.09 -1.79142 7.17466 0.00908244 0.00864632 -0.000166536 0.00888446 1.57485e-07 270.907 
-0.95 -0.07 -0.692323 6.80969 0.00899006 0.00867843 -0.000185286 0.00884756 1.56286e-07 271.853 
-0.77 -0.11 -4.01074 6.50177 0.00912034 0.00869881 -0.000123331 0.00893809 1.57762e-07 272.066 
-0.85 -0.09 -2.24409 6.89003 0.00906152 0.00864873 -0.000154436 0.00886503 1.57233e-07 270.749 
-0.93 -0.07 -1.38312 7.79271 0.00899863 0.00864315 -0.000171085 0.00884589 1.56223e-07 271.912 
-0.75 -0.11 -4.52307 5.77933 0.00911169 0.00872491 -0.000124112 0.00894198 1.58206e-07 271.42 
-0.83 -0.09 -2.68163 7.27926 0.00908961 0.00870614 -0.000141225 0.00891656 1.57591e-07 271.704 
-0.91 -0.07 -1.58253 7.2666 0.00901352 0.00862916 -0.000181118 0.008854 1.56412e-07 271.831 
-0.99 -0.05 0.43469 6.62321 0.00896115 0.00863751 -0.000213173 0.00881696 1.55984e-07 271.436 
-0.81 -0.09 -3.06123 6.96608 0.00908397 0.00870672 -0.0001358 0.00891283 1.57725e-07 271.36 
-0.89 -0.07 -1.44214 7.73361 0.00904294 0.00865378 -0.000174689 0.00887569 1.56816e-07 271.796 
-0.97 -0.05 -0.277435 6.88104 0.00898048 0.00867894 -0.000200905 0.00884971 1.56379e-07 271.757 
-0.79 -0.09 -3.98117 6.51323 0.00909272 0.00873836 -0.000104029 0.00891637 1.57861e-07 271.234 
-0.87 -0.07 -2.03472 7.47223 0.00904203 0.00863168 -0.000155322 0.0088716 1.57087e-07 271.201 
-0.95 -0.05 -0.313982 7.38236 0.00897807 0.00865665 -0.00020179 0.00884833 1.56331e-07 271.798 
-0.77 -0.09 -4.19076 6.50869 0.00909899 0.00870636 -0.000114778 0.00892595 1.57899e-07 271.459 
-0.85 -0.07 -2.52818 7.58706 0.00905482 0.00865544 -0.000139822 0.0088819 1.56949e-07 271.755 
-0.93 -0.05 -0.61351 8.07039 0.00898784 0.00862821 -0.000181146 0.00882545 1.56105e-07 271.487 
-0.75 -0.09 -4.51304 6.43317 0.0090964 0.00873286 -0.000135411 0.00893763 1.57985e-07 271.666 
-0.83 -0.07 -2.70789 7.86369 0.00904621 0.00867983 -0.000151619 0.0088829 1.56975e-07 271.741 
-0.91 -0.05 -1.30555 8.14326 0.00900132 0.00864684 -0.000179884 0.00885779 1.56239e-07 272.249 
-0.99 -0.03 -0.296209 6.67494 0.00897057 0.00864875 -0.000216243 0.00882481 1.56173e-07 271.35 
-0.81 -0.07 -3.39175 7.80665 0.00903453 0.00870099 -0.000139921 0.00888216 1.57183e-07 271.359 
-0.89 -0.05 -1.66516 7.74868 0.00899677 0.00864019 -0.000191001 0.00883843 1.56362e-07 271.44 
-0.97 -0.03 -0.142677 7.52727 0.00896342 0.00865113 -0.000213936 0.00883246 1.56145e-07 271.634 