ITEM: TIMESTEP
989500
ITEM: NUMBER OF CELLS
5000
ITEM: BOX BOUNDS ss ss pp
-0.5 0.5
-1 1
-0.5 0.5
ITEM: CELLS xc yc f_U[*] f_V[*] f_Tau[1] f_Tau[2] f_Tau[3] f_Press[*] f_Mrho[*] f_Ttra[*] 
-0.49 -0.99 -0.0638354 0.109964 0.00976033 0.00973232 1.14237e-05 0.00974795 1.71571e-07 272.835 
-0.47 -0.99 -0.146836 -0.0421979 0.00974486 0.00971735 8.08451e-06 0.00973664 1.71451e-07 272.708 
-0.45 -0.99 -0.196983 0.0309851 0.00974546 0.00972715 6.23565e-06 0.00974114 1.71392e-07 272.928 
-0.49 -0.97 -0.0348376 0.140434 0.00974411 0.00972251 1.17851e-05 0.00973491 1.7133e-07 272.853 
-0.43 -0.99 -0.22249 -0.0402564 0.0097392 0.00972643 5.51025e-06 0.00973938 1.71352e-07 272.943 
-0.47 -0.97 -0.0988478 0.0627195 0.00974623 0.0097201 1.40626e-05 0.00973652 1.71359e-07 272.852 
-0.41 -0.99 -0.0950225 -0.064965 0.00973439 0.00972721 6.33721e-07 0.00973297 1.71305e-07 272.838 
-0.45 -0.97 -0.0825934 -0.020002 0.00974399 0.00972947 6.76429e-06 0.00974296 1.71366e-07 273.021 
-0.49 -0.95 0.065343 0.0739218 0.00973464 0.00970772 2.22113e-06 0.00972759 1.71165e-07 272.911 
-0.39 -0.99 -0.140145 0.097895 0.0097392 0.00972818 -1.22591e-06 0.00973204 1.71091e-07 273.153 
-0.43 -0.97 0.013186 0.0642746 0.00974821 0.00972969 5.45344e-06 0.00974382 1.7141e-07 272.976 
-0.47 -0.95 0.129216 0.105252 0.00975086 0.00972557 2.11426e-06 0.0097369 1.71335e-07 272.901 
-0.37 -0.99 -0.187811 -0.0494264 0.0097387 0.0097291 9.00425e-06 0.00973544 1.71269e-07 272.965 
-0.41 -0.97 -0.157779 -0.164551 0.009743 0.00972887 3.7932e-06 0.00973721 1.71321e-07 272.932 
-0.45 -0.95 0.224342 -0.163912 0.00975703 0.00973616 8.43329e-06 0.00975145 1.71533e-07 272.993 
-0.49 -0.93 0.00147519 0.000934284 0.0097655 0.0097182 4.4564e-07 0.00974498 1.71402e-07 273.02 
-0.35 -0.99 -0.0656532 -0.122294 0.00972716 0.0097042 9.41708e-06 0.00971471 1.70957e-07 272.881 
-0.39 -0.97 -0.00750833 0.0579087 0.00973584 0.00972229 6.82412e-06 0.00973522 1.71361e-07 272.813 
-0.43 -0.95 0.155028 0.0784013 0.00975505 0.00972542 7.88834e-06 0.0097452 1.71509e-07 272.857 
-0.47 -0.93 0.00600669 0.0177413 0.00975975 0.00971904 2.31861e-06 0.00974133 1.71439e-07 272.859 
-0.33 -0.99 -0.037055 0.0598891 0.00973264 0.00972404 3.18808e-06 0.0097275 1.71213e-07 272.832 
-0.37 -0.97 0.00383195 -0.0709551 0.00973396 0.00972757 6.69181e-06 0.00973708 1.71338e-07 272.901 
-0.41 -0.95 0.0408745 0.0594871 0.00975396 0.00973128 4.71559e-06 0.00974504 1.7152e-07 272.834 
-0.45 -0.93 -0.0884646 0.00572774 0.00975744 0.00973085 7.56484e-06 0.0097447 1.71481e-07 272.887 
-0.49 -0.91 -0.00797067 0.137798 0.009768 0.00972398 1.18404e-05 0.00974721 1.71354e-07 273.16 
-0.35 -0.97 -0.061716 -0.0718817 0.00973729 0.00971099 6.77566e-06 0.00972818 1.7115e-07 272.952 
-0.39 -0.95 -0.179197 -0.0427785 0.00975248 0.00972301 6.67754e-06 0.00973866 1.71507e-07 272.677 
-0.43 -0.93 -0.125978 0.114653 0.00975808 0.0097282 3.92984e-06 0.00973893 1.71381e-07 272.884 
-0.47 -0.91 -0.254521 0.0176589 0.00975964 0.00971932 4.43201e-06 0.00973737 1.71436e-07 272.754 
-0.33 -0.97 -0.15982 0.0101185 0.00974118 0.00972369 2.84589e-06 0.00973898 1.71432e-07 272.805 
-0.37 -0.95 -0.151145 -0.0706503 0.00975445 0.00972115 1.16156e-05 0.00974352 1.71404e-07 272.976 
-0.41 -0.93 -0.125452 0.0870548 0.00975873 0.00973064 1.17497e-05 0.00973604 1.71313e-07 272.912 
-0.45 -0.91 -0.129667 -0.00203822 0.00976285 0.00972329 3.99914e-06 0.00974708 1.71515e-07 272.899 
-0.49 -0.89 -0.0370629 0.130376 0.00976777 0.00972298 7.06246e-06 0.00974595 1.71391e-07 273.066 
-0.35 -0.95 -0.124797 -0.0270461 0.00975615 0.00972024 4.09823e-06 0.00974189 1.71454e-07 272.851 
-0.39 -0.93 -0.0147349 -0.0944711 0.00975299 0.0097223 7.69537e-06 0.00973936 1.71572e-07 272.593 
-0.43 -0.91 -0.218089 0.0602867 0.00975939 0.00973396 1.00069e-05 0.00974193 1.7129e-07 273.114 
-0.47 -0.89 0.0814058 0.11447 0.00976783 0.00972627 9.88152e-06 0.00974798 1.71567e-07 272.842 
-0.37 -0.93 -0.0475711 0.0388488 0.00975824 0.00972309 1.26217e-06 0.00974738 1.71466e-07 272.985 
-0.41 -0.91 -0.102278 -0.00359232 0.00976724 0.00972432 4.41695e-06 0.00974363 1.71453e-07 272.901 
-0.45 -0.89 -0.150039 0.169847 0.00976118 0.00971905 7.67995e-07 0.00974548 1.71443e-07 272.97 
-0.49 -0.87 -0.0320051 0.126433 0.00974968 0.00971228 -2.03716e-06 0.00973177 1.71302e-07 272.809 
-0.35 -0.93 -0.387654 0.0344631 0.00975712 0.00972204 6.5918e-06 0.00973899 1.71485e-07 272.72 
-0.39 -0.91 -0.15255 -0.0167173 0.00977345 0.00973097 1.22709e-05 0.00975508 1.71734e-07 272.775 
-0.43 -0.89 -0.210332 -0.0535195 0.00976957 0.0097386 2.43067e-06 0.00975397 1.7148e-07 273.148 
-0.47 -0.87 0.0893059 0.178253 0.00975765 0.00972446 6.1368e-06 0.00973744 1.7139e-07 272.828 
-0.37 -0.91 -0.273199 0.222761 0.0097567 0.00972269 9.82748e-06 0.00974018 1.71627e-07 272.528 
-0.41 -0.89 -0.136913 0.0122606 0.00976278 0.00971793 4.54941e-06 0.0097436 1.71499e-07 272.828 
-0.45 -0.87 -0.094474 0.165923 0.00976336 0.00972279 7.083e-06 0.00975089 1.71522e-07 272.995 
-0.49 -0.85 -0.0438869 0.149882 0.00975256 0.0097141 1.56089e-07 0.00973164 1.7123e-07 272.921 
-0.35 -0.91 -0.154123 0.141412 0.00975022 0.00972412 5.4353e-06 0.00973924 1.71457e-07 272.773 
-0.39 -0.89 -0.143842 0.153669 0.00975789 0.00971702 1.41204e-05 0.0097456 1.71534e-07 272.828 
-0.43 -0.87 -0.0785748 0.0631826 0.00974871 0.00973631 8.83857e-06 0.00974896 1.71507e-07 272.965 
-0.47 -0.85 -0.212161 0.242246 0.00975218 0.00971689 6.1768e-08 0.0097392 1.71323e-07 272.984 
-0.33 -0.91 -0.186041 -0.141889 0.00974748 0.0097116 1.3886e-05 0.00973305 1.71366e-07 272.744 
-0.37 -0.89 -0.241894 0.0981067 0.00976363 0.00973563 1.91423e-05 0.00975824 1.71703e-07 272.912 
-0.41 -0.87 -0.249587 -0.00974441 0.00975215 0.00971946 7.52347e-06 0.00973821 1.71463e-07 272.733 
-0.45 -0.85 -0.101737 0.155997 0.00975652 0.00972036 7.34987e-06 0.00974321 1.71402e-07 272.971 
-0.35 -0.89 -0.279368 0.194924 0.00976627 0.00972098 1.13813e-05 0.00974161 1.71445e-07 272.858 
-0.39 -0.87 -0.297405 0.152012 0.00976105 0.00971208 6.56325e-06 0.00973997 1.71513e-07 272.703 
-0.43 -0.85 -0.1583 0.107351 0.00976862 0.00973853 5.68846e-06 0.00975037 1.71628e-07 272.812 
-0.37 -0.87 -0.295921 0.188529 0.00977492 0.00973314 7.3685e-06 0.00975498 1.71663e-07 272.886 
-0.41 -0.85 -0.178678 0.138124 0.00976665 0.00971871 7.62907e-06 0.00974698 1.71628e-07 272.718 
-0.35 -0.87 -0.243225 0.125411 0.00977535 0.00972211 1.29838e-05 0.00974651 1.71519e-07 272.878 
-0.39 -0.85 -0.289249 0.274183 0.00976612 0.00972033 -1.84062e-06 0.00974858 1.71566e-07 272.86 
-0.33 -0.87 -0.381735 0.00168287 0.00977412 0.00972269 1.30939e-05 0.00975024 1.71518e-07 272.984 
-0.37 -0.85 -0.349315 0.0502714 0.00976395 0.00971962 5.74922e-06 0.00974252 1.71419e-07 272.925 
-0.35 -0.85 -0.258238 0.133354 0.00976421 0.0097207 1.29103e-05 0.00974219 1.71304e-07 273.099 
-0.33 -0.85 -0.424821 0.309162 0.00976381 0.00972275 1.4295e-05 0.00974053 1.71397e-07 272.903 
-0.31 -0.99 0.0296875 -0.0404148 0.0097284 0.0097115 1.11068e-05 0.00971988 1.71208e-07 272.626 
-0.29 -0.99 -0.0736476 0.143694 0.0097327 0.00972138 1.19885e-05 0.0097321 1.71286e-07 272.844 
-0.27 -0.99 -0.131927 -0.0450872 0.00974691 0.00972977 7.53156e-06 0.00973506 1.71187e-07 273.085 
-0.31 -0.97 -0.41044 -0.066984 0.00974582 0.00971368 3.93075e-06 0.00973189 1.71352e-07 272.734 
-0.29 -0.97 -0.366938 0.247462 0.00975323 0.00972037 7.88702e-06 0.00974337 1.7153e-07 272.771 
-0.33 -0.95 -0.0597805 0.116564 0.00975068 0.00971916 6.57305e-06 0.00973749 1.71342e-07 272.906 
-0.27 -0.97 -0.298689 -0.105023 0.0097453 0.00972374 1.25064e-05 0.00973775 1.714e-07 272.822 
-0.31 -0.95 -0.161663 0.214221 0.00974884 0.009715 6.34605e-06 0.00973182 1.71345e-07 272.742 
-0.29 -0.95 -0.16067 0.0295795 0.00974346 0.00970851 8.12994e-06 0.00972602 1.71302e-07 272.648 
-0.33 -0.93 -0.338498 0.0931829 0.0097625 0.00971572 2.13204e-06 0.00973697 1.71347e-07 272.883 
-0.27 -0.95 -0.299325 -0.0139375 0.00974682 0.0097303 7.23003e-06 0.00974034 1.71387e-07 272.914 
-0.31 -0.93 -0.0706044 0.111364 0.00975976 0.0097126 1.08213e-05 0.0097374 1.71574e-07 272.535 
-0.29 -0.93 -0.217763 0.214029 0.00976119 0.00971113 9.1504e-06 0.00973907 1.71511e-07 272.681 
-0.27 -0.93 -0.159478 0.0762334 0.00976158 0.00972673 9.43252e-06 0.0097458 1.71575e-07 272.769 
-0.31 -0.91 -0.204284 0.177163 0.00975092 0.00971408 6.48042e-06 0.00973822 1.71454e-07 272.748 
-0.29 -0.91 -0.183432 0.0851184 0.00975122 0.00971127 9.23595e-08 0.00973109 1.71365e-07 272.69 
-0.33 -0.89 -0.337379 -0.131192 0.00976023 0.00971815 9.19294e-06 0.00974063 1.71407e-07 272.891 
-0.27 -0.91 -0.047702 0.107969 0.00975699 0.00972233 5.27711e-06 0.00973423 1.71468e-07 272.614 
-0.31 -0.89 -0.253369 0.0940282 0.00976464 0.00971698 1.41067e-06 0.0097489 1.71606e-07 272.805 
-0.29 -0.89 -0.176025 0.0172153 0.00975958 0.00971231 5.73828e-06 0.00974099 1.71359e-07 272.978 
-0.27 -0.89 -0.326297 0.265139 0.00975122 0.00971735 9.12014e-06 0.00974285 1.71458e-07 272.871 
-0.31 -0.87 -0.484333 0.0953504 0.00976011 0.0097197 7.59937e-06 0.00973814 1.71427e-07 272.789 
-0.29 -0.87 -0.421437 -0.0284835 0.00975447 0.009708 7.53597e-06 0.00973672 1.71293e-07 272.962 
-0.27 -0.87 -0.374835 0.295461 0.00975538 0.00971878 1.31674e-05 0.00974113 1.71412e-07 272.897 
-0.31 -0.85 -0.450939 -0.158633 0.00976635 0.00972529 2.01452e-05 0.00974726 1.7152e-07 272.897 
-0.29 -0.85 -0.312336 0.0974025 0.00975698 0.00970772 1.39244e-05 0.00974101 1.7139e-07 272.929 
-0.27 -0.85 -0.374711 0.189297 0.00975302 0.00971473 1.04158e-05 0.00973745 1.71166e-07 273.186 
-0.25 -0.99 -0.26312 0.0969833 0.00974855 0.00973627 1.43533e-05 0.00974277 1.71369e-07 273.011 
-0.25 -0.97 -0.16913 0.19645 0.00974713 0.00973337 6.87144e-06 0.00974197 1.71528e-07 272.736 
-0.25 -0.95 -0.430012 0.151101 0.00974463 0.00973549 9.01583e-06 0.00974227 1.71467e-07 272.842 
-0.25 -0.93 -0.0881159 0.121166 0.0097602 0.00973695 1.51449e-05 0.00974561 1.71588e-07 272.742 
-0.25 -0.91 -0.218448 0.116871 0.00976104 0.00973144 1.17176e-05 0.00974805 1.71572e-07 272.836 
-0.25 -0.89 -0.349929 0.193908 0.00975026 0.00972303 1.15951e-05 0.00973792 1.71341e-07 272.92 
-0.25 -0.87 -0.427012 0.245312 0.00974747 0.0097158 1.62042e-05 0.00973772 1.71279e-07 273.013 
-0.25 -0.85 -0.260851 0.322816 0.00976248 0.00971924 9.09794e-06 0.00974631 1.71375e-07 273.101 
-0.25 -0.83 -0.517715 0.19869 0.00976004 0.00971314 6.17989e-06 0.00974407 1.71314e-07 273.135 
-0.33 -0.81 -0.0405864 0.118704 0.00976246 0.0097117 1.03806e-05 0.00973809 1.71432e-07 272.78 
-0.31 -0.81 -0.128319 0.143148 0.0097768 0.00972344 1.25864e-05 0.00975321 1.71471e-07 273.141 
-0.29 -0.81 -0.224657 0.127697 0.0097801 0.0097233 1.05035e-05 0.00975624 1.71465e-07 273.235 
-0.27 -0.81 -0.362259 0.370039 0.00977595 0.009723 1.19437e-05 0.0097576 1.71543e-07 273.15 
-0.31 -0.79 -0.339237 0.166862 0.00975858 0.00971661 6.67294e-06 0.00973813 1.71393e-07 272.844 
-0.29 -0.79 -0.427281 0.394857 0.00976279 0.00972148 8.09522e-06 0.00974115 1.7149e-07 272.774 
-0.33 -0.77 -0.36397 0.300806 0.00977189 0.00972172 1.35421e-05 0.00974713 1.71455e-07 272.997 
-0.27 -0.79 -0.500347 0.248604 0.00976682 0.00971663 1.52207e-05 0.00974471 1.71485e-07 272.881 
-0.31 -0.77 -0.289648 0.214695 0.00976543 0.00971184 1.10059e-05 0.00974093 1.71453e-07 272.825 
-0.29 -0.77 -0.302941 0.334505 0.00975775 0.00971974 1.11997e-05 0.00974175 1.71584e-07 272.641 
-0.27 -0.77 -0.328361 0.323394 0.00975467 0.00971191 7.80654e-06 0.00973829 1.71345e-07 272.923 
-0.31 -0.75 -0.190323 0.355929 0.00976228 0.00971705 1.01972e-05 0.00974925 1.71558e-07 272.892 
-0.29 -0.75 -0.489532 0.370261 0.00976158 0.00971813 1.43903e-05 0.00974745 1.71563e-07 272.834 
-0.27 -0.75 -0.490741 0.50644 0.00976298 0.00971006 1.71255e-05 0.00973727 1.71325e-07 272.927 
-0.49 -0.83 -0.0922483 0.334898 0.00975502 0.00971693 2.07486e-06 0.00973619 1.71381e-07 272.807 
-0.47 -0.83 -0.16835 0.187241 0.00975587 0.00971618 2.19809e-06 0.00974035 1.71642e-07 272.509 
-0.45 -0.83 -0.16693 0.188695 0.00975392 0.00972425 -2.96782e-06 0.00974033 1.71487e-07 272.756 
-0.49 -0.81 0.0227167 0.384373 0.00976015 0.00971958 -1.27861e-06 0.00974195 1.71473e-07 272.822 
-0.43 -0.83 -0.137182 0.119832 0.00975106 0.00972237 3.04312e-06 0.00973885 1.71467e-07 272.746 
-0.47 -0.81 -0.0509209 0.202656 0.00976169 0.00971749 -9.60458e-07 0.00974469 1.7149e-07 272.873 
-0.45 -0.81 -0.0492712 0.148115 0.00976819 0.0097237 1.68112e-06 0.00974477 1.71548e-07 272.782 
-0.49 -0.79 0.0188704 0.444076 0.00975604 0.00972215 3.06895e-07 0.00974042 1.71394e-07 272.906 
-0.43 -0.81 -0.119335 0.243763 0.00976806 0.00971689 2.09226e-07 0.00974532 1.71702e-07 272.552 
-0.47 -0.79 0.0512698 0.145416 0.0097534 0.00971715 -9.88761e-06 0.00974004 1.71355e-07 272.958 
-0.41 -0.81 -0.256277 0.234812 0.00976488 0.00972507 9.28329e-06 0.00974886 1.71538e-07 272.913 
-0.45 -0.79 -0.0372898 0.272591 0.00975521 0.00971803 -3.75327e-07 0.00973568 1.71432e-07 272.713 
-0.49 -0.77 0.0310821 0.300341 0.00976215 0.00972224 5.47119e-06 0.00974437 1.71412e-07 272.988 
-0.39 -0.81 -0.252432 0.150329 0.00975673 0.00971993 1.62241e-05 0.0097458 1.71601e-07 272.727 
-0.43 -0.79 -0.312846 0.384239 0.00976317 0.00971439 2.81119e-06 0.00973767 1.71526e-07 272.618 
-0.47 -0.77 -0.0306425 0.372762 0.00975616 0.00972522 3.62118e-07 0.00974145 1.71393e-07 272.936 
-0.37 -0.81 -0.0548643 0.158695 0.00975594 0.00971629 8.73381e-06 0.00973587 1.71538e-07 272.548 
-0.41 -0.79 -0.334539 0.28523 0.00976817 0.00971895 6.60838e-06 0.00974704 1.71707e-07 272.594 
-0.45 -0.77 -0.35197 0.508607 0.00975435 0.00971158 -5.81691e-06 0.00973427 1.714e-07 272.723 
-0.35 -0.81 -0.034584 0.211484 0.00974615 0.00970926 1.69711e-06 0.0097331 1.71315e-07 272.826 
-0.39 -0.79 -0.243081 0.0328307 0.00977277 0.00971967 9.3626e-06 0.00974817 1.71794e-07 272.486 
-0.43 -0.77 -0.270755 0.389497 0.00975051 0.00971399 7.70495e-07 0.00973245 1.71458e-07 272.581 
-0.37 -0.79 -0.286437 0.153848 0.00977955 0.00971836 1.03103e-05 0.00975114 1.71684e-07 272.744 
-0.41 -0.77 -0.32622 0.111734 0.00975308 0.00970933 4.18955e-06 0.00973513 1.71431e-07 272.698 
-0.35 -0.79 -0.158629 0.0888639 0.0097765 0.00971472 1.4428e-05 0.00974784 1.7158e-07 272.818 
-0.39 -0.77 -0.13 0.0443911 0.00975305 0.00972108 9.09899e-06 0.00974486 1.71635e-07 272.646 
-0.43 -0.75 0.109556 0.182761 0.00976695 0.00971918 -5.60011e-06 0.00974465 1.71514e-07 272.834 
-0.33 -0.79 -0.185794 0.237889 0.009761 0.0097119 1.64352e-06 0.00973578 1.71436e-07 272.709 
-0.37 -0.77 -0.0829423 0.163541 0.00975904 0.00971417 3.3612e-06 0.00973918 1.71469e-07 272.751 
-0.41 -0.75 0.0911412 0.324522 0.00976739 0.0096988 3.40082e-06 0.00974104 1.71574e-07 272.637 
-0.35 -0.77 -0.371293 0.246728 0.0097702 0.00971599 7.58064e-06 0.00974269 1.7137e-07 273.008 
-0.39 -0.75 -0.208286 0.0600127 0.00977191 0.00972002 3.10222e-06 0.00974809 1.71626e-07 272.751 
-0.49 -0.75 -0.0310596 0.266957 0.00975844 0.00972326 5.54489e-06 0.00974265 1.7136e-07 273.022 
-0.47 -0.75 -0.0822673 0.522782 0.00975966 0.00973496 4.75954e-06 0.00974356 1.71381e-07 273.015 
-0.45 -0.75 -0.000133609 0.564794 0.00975831 0.00970373 -3.73151e-06 0.009728 1.7136e-07 272.612 
-0.49 -0.73 -0.109396 0.491093 0.00977082 0.0097186 4.30055e-06 0.00974524 1.71366e-07 273.085 
-0.47 -0.73 -0.200684 0.410299 0.00977405 0.00974478 4.6e-06 0.00975504 1.71498e-07 273.15 
-0.45 -0.73 -0.121566 0.290042 0.00977204 0.00971471 -8.10013e-06 0.00973983 1.71475e-07 272.761 
-0.49 -0.71 0.0110131 0.617407 0.00977706 0.00971894 5.37323e-07 0.00974448 1.71549e-07 272.773 
-0.43 -0.73 -0.0249451 0.306628 0.00975815 0.0097081 8.86152e-08 0.00973512 1.71431e-07 272.699 
-0.47 -0.71 -0.0598717 0.484481 0.00977653 0.0097389 2.1536e-07 0.00975639 1.71633e-07 272.972 
-0.37 -0.75 -0.251604 0.121067 0.00976238 0.00971574 1.06457e-05 0.00973991 1.7156e-07 272.628 
-0.41 -0.73 -0.046763 0.328349 0.00975949 0.00969677 -3.12608e-06 0.00973637 1.71572e-07 272.509 
-0.45 -0.71 0.0686978 0.110155 0.00977062 0.00972214 9.24065e-06 0.00974589 1.71483e-07 272.917 
-0.49 -0.69 0.0363502 0.547804 0.00977068 0.00971487 -4.37845e-06 0.00974489 1.71516e-07 272.836 
-0.35 -0.75 -0.0871116 0.335784 0.00975465 0.0097105 7.10796e-06 0.00973582 1.71341e-07 272.861 
-0.39 -0.73 -0.0630586 0.168992 0.0097623 0.0097077 8.76797e-06 0.00973856 1.71354e-07 272.918 
-0.43 -0.71 -0.0850981 0.312649 0.00976825 0.0097092 1.07696e-06 0.00974291 1.71593e-07 272.658 
-0.47 -0.69 0.162058 0.388766 0.00977478 0.00973027 4.6659e-06 0.00975307 1.71531e-07 273.042 
-0.37 -0.73 -0.285209 0.206522 0.00976972 0.00972113 8.51885e-06 0.00974825 1.7158e-07 272.829 
-0.41 -0.71 -0.0907398 0.438768 0.00976643 0.00969023 6.15271e-07 0.00973507 1.71652e-07 272.345 
-0.45 -0.69 -0.00254936 0.289907 0.00978034 0.00971957 9.04557e-06 0.00975322 1.71645e-07 272.865 
-0.35 -0.73 -0.524772 0.419097 0.00976984 0.00971361 7.92474e-06 0.00974664 1.71561e-07 272.815 
-0.39 -0.71 -0.192975 0.248072 0.00976922 0.00970994 -2.62643e-06 0.00973893 1.71535e-07 272.639 
-0.43 -0.69 -0.164902 0.477167 0.00978011 0.00971759 9.47028e-06 0.00975664 1.71875e-07 272.595 
-0.33 -0.73 -0.440759 0.111508 0.00976782 0.00970568 1.28029e-05 0.00973991 1.71524e-07 272.685 
-0.37 -0.71 -0.100985 0.308823 0.00976824 0.0097169 1.10464e-05 0.00974689 1.71582e-07 272.787 
-0.41 -0.69 -0.137915 0.301568 0.00977279 0.00970187 -1.36164e-07 0.00973854 1.71671e-07 272.413 
-0.35 -0.71 -0.209867 0.535338 0.00976598 0.00970594 6.67523e-06 0.00974721 1.71579e-07 272.802 
-0.39 -0.69 -0.0931919 0.365546 0.00976293 0.00969858 3.49551e-06 0.0097339 1.71463e-07 272.614 
-0.37 -0.69 -0.272204 0.327526 0.00976499 0.00971262 7.4273e-06 0.00974433 1.71506e-07 272.837 
-0.35 -0.69 -0.22787 0.590543 0.0097649 0.0097028 1.33363e-05 0.00973622 1.71368e-07 272.829 
-0.35 -0.67 -0.229255 0.487554 0.00977141 0.00971512 8.70441e-06 0.00974354 1.7149e-07 272.839 
-0.33 -0.67 -0.222159 0.524483 0.00975885 0.00970093 5.69877e-06 0.00974319 1.71562e-07 272.715 
-0.33 -0.75 -0.116112 0.194795 0.00975665 0.00971377 1.06978e-05 0.00973645 1.71341e-07 272.879 
-0.31 -0.73 -0.446337 0.46687 0.00976633 0.00972202 1.24042e-05 0.00974791 1.71549e-07 272.869 
-0.29 -0.73 -0.316144 0.513681 0.00977054 0.00970745 1.04528e-05 0.00974769 1.71479e-07 272.973 
-0.33 -0.71 -0.49343 0.13925 0.00976371 0.009709 1.44472e-05 0.00974169 1.71489e-07 272.79 
-0.27 -0.73 -0.45795 0.522735 0.00976701 0.00971778 1.79651e-05 0.00974973 1.71458e-07 273.065 
-0.31 -0.71 -0.402934 0.380828 0.00976386 0.00972338 1.26367e-05 0.00974994 1.71574e-07 272.886 
-0.29 -0.71 -0.42543 0.462307 0.00975803 0.00970304 1.51191e-05 0.00974003 1.71297e-07 273.049 
-0.33 -0.69 -0.258851 0.334155 0.0097758 0.00970773 3.70421e-06 0.00974865 1.71722e-07 272.615 
-0.27 -0.71 -0.385922 0.514145 0.00976303 0.00971233 1.04312e-05 0.00974038 1.71211e-07 273.195 
-0.31 -0.69 -0.456867 0.369248 0.00978005 0.00971852 1.27455e-05 0.00975786 1.71665e-07 272.963 
-0.29 -0.69 -0.434816 0.538308 0.00977941 0.00970975 1.66577e-05 0.009751 1.71513e-07 273.013 
-0.27 -0.69 -0.382015 0.380447 0.00977861 0.00971697 9.5097e-06 0.00975059 1.7134e-07 273.277 
-0.31 -0.67 -0.34206 0.447346 0.00975729 0.00971076 1.06237e-05 0.00973954 1.71459e-07 272.777 
-0.29 -0.67 -0.392137 0.382799 0.00976349 0.00971255 1.33835e-05 0.00974249 1.7135e-07 273.034 
-0.41 -0.83 -0.16366 0.231557 0.00975806 0.00972845 7.52377e-06 0.00974534 1.71586e-07 272.738 
-0.39 -0.83 -0.122883 0.274181 0.00975486 0.00972121 3.53469e-06 0.00973397 1.71443e-07 272.647 
-0.37 -0.83 -0.139668 0.195233 0.00974543 0.00971133 4.68522e-06 0.00972849 1.71187e-07 272.9 
-0.35 -0.83 -0.331496 0.0795935 0.00975397 0.00971689 1.43992e-05 0.00973251 1.71263e-07 272.893 
-0.33 -0.83 -0.184467 0.31154 0.00975222 0.00971979 1.406e-05 0.00973582 1.71234e-07 273.032 
-0.31 -0.83 -0.13558 -0.270115 0.00974939 0.00971568 1.7337e-05 0.00974049 1.71443e-07 272.83 
-0.29 -0.83 -0.298215 0.193748 0.00975871 0.00972006 1.89271e-05 0.00974751 1.7132e-07 273.223 
-0.27 -0.83 -0.413756 0.310819 0.00975984 0.00972136 5.51505e-06 0.00974831 1.71375e-07 273.157 
-0.27 -0.67 -0.456169 0.517994 0.00976198 0.00972002 1.61026e-05 0.00974439 1.71353e-07 273.082 
-0.25 -0.67 -0.40143 0.45641 0.0097704 0.00971903 8.81107e-06 0.00975294 1.7139e-07 273.262 
-0.25 -0.81 -0.356533 0.253082 0.00976274 0.00971396 8.12837e-06 0.00974457 1.71468e-07 272.904 
-0.25 -0.79 -0.332072 0.189617 0.00977185 0.00972439 1.92916e-05 0.00974875 1.71497e-07 272.975 
-0.35 -0.55 -0.28992 0.748227 0.00978324 0.00971441 8.60046e-06 0.00974783 1.71497e-07 272.95 
-0.39 -0.53 -0.234093 0.915238 0.00978153 0.00969446 2.92165e-06 0.00974403 1.71397e-07 273.002 
-0.37 -0.57 -0.278063 0.760461 0.00977828 0.00970513 1.11077e-05 0.00974838 1.71405e-07 273.111 
-0.41 -0.55 -0.221996 0.885358 0.00976282 0.00970424 5.92466e-06 0.00973879 1.71439e-07 272.788 
-0.45 -0.53 0.00261915 0.642581 0.0097648 0.0096964 1.06239e-06 0.00973148 1.7132e-07 272.773 
-0.35 -0.57 -0.273936 0.724426 0.00978098 0.00970551 1.93185e-05 0.00974454 1.71468e-07 272.904 
-0.39 -0.55 -0.288868 0.743655 0.00976352 0.00968895 4.36641e-06 0.00973794 1.71353e-07 272.902 
-0.43 -0.53 -0.138855 0.659708 0.00977186 0.00969499 4.52003e-06 0.00973589 1.71452e-07 272.687 
-0.47 -0.51 -0.071672 0.749998 0.00976673 0.00969933 -2.34123e-06 0.00973544 1.71495e-07 272.605 
-0.37 -0.55 -0.326245 0.759503 0.00976575 0.0096902 4.91401e-06 0.00973584 1.71193e-07 273.098 
-0.41 -0.53 -0.198277 0.762675 0.00977823 0.00970331 1.43817e-06 0.00974191 1.71471e-07 272.824 
-0.45 -0.51 -0.276781 0.663888 0.00976998 0.00969243 2.024e-06 0.00973593 1.71452e-07 272.687 
-0.37 -0.53 -0.225127 0.730635 0.00977964 0.00969055 1.74149e-06 0.00974052 1.71447e-07 272.824 
-0.41 -0.51 -0.238779 0.818409 0.00976763 0.00970074 3.95812e-07 0.00973791 1.71425e-07 272.786 
-0.35 -0.53 -0.327104 0.756813 0.00977211 0.00970511 9.92364e-06 0.00974158 1.71551e-07 272.688 
-0.39 -0.51 -0.323596 0.851389 0.00977164 0.0096937 1.21894e-06 0.00973838 1.71503e-07 272.675 
-0.37 -0.51 -0.381167 0.832984 0.00976895 0.00968406 6.18806e-06 0.00972982 1.71257e-07 272.827 
-0.35 -0.51 -0.458239 0.830087 0.00977102 0.0097011 1.18542e-05 0.00973195 1.71367e-07 272.71 
-0.49 -0.65 -0.00423591 0.485226 0.00977408 0.00972121 7.75847e-06 0.0097494 1.71472e-07 273.032 
-0.47 -0.65 -0.118862 0.401075 0.00977222 0.00971724 2.34725e-06 0.00975109 1.71555e-07 272.948 
-0.45 -0.65 -0.0654155 0.505161 0.00976993 0.00972733 6.571e-06 0.00975271 1.71719e-07 272.732 
-0.49 -0.63 -0.00784594 0.478187 0.00976417 0.00972432 -1.41883e-07 0.00975436 1.71767e-07 272.703 
-0.43 -0.65 0.0861963 0.614145 0.0097596 0.00969969 3.25385e-06 0.00973623 1.71454e-07 272.693 
-0.47 -0.63 -0.0264376 0.514352 0.00976467 0.00970957 -5.34916e-08 0.00974415 1.71608e-07 272.669 
-0.41 -0.65 0.0464793 0.481852 0.00976268 0.00970573 1.18136e-05 0.00973931 1.71409e-07 272.85 
-0.45 -0.63 -0.0339008 0.436439 0.00977344 0.00972646 7.62195e-06 0.00975608 1.71677e-07 272.893 
-0.49 -0.61 -0.0181902 0.585438 0.00976394 0.00971585 -8.62082e-06 0.00974702 1.7153e-07 272.874 
-0.39 -0.65 -0.109781 0.380943 0.00976228 0.00971219 7.04782e-06 0.00974359 1.71402e-07 272.981 
-0.43 -0.63 -0.167322 0.550503 0.0097776 0.00970587 1.04634e-05 0.00974178 1.71344e-07 273.023 
-0.47 -0.61 -0.113534 0.440136 0.00976524 0.00971042 2.46364e-06 0.00974306 1.71479e-07 272.844 
-0.37 -0.65 -0.26559 0.535288 0.00976308 0.00969723 7.87742e-07 0.00973273 1.71223e-07 272.963 
-0.41 -0.63 -0.193836 0.613752 0.00977319 0.00969859 2.81137e-06 0.00973945 1.71454e-07 272.784 
-0.45 -0.61 -0.113828 0.54037 0.00976426 0.00971556 -5.22968e-06 0.00974269 1.71403e-07 272.956 
-0.49 -0.59 -0.0204681 0.51321 0.00977902 0.00970649 -3.33125e-06 0.00975161 1.7168e-07 272.763 
-0.35 -0.65 -0.282515 0.406498 0.00977031 0.00971384 9.07636e-06 0.00974159 1.71451e-07 272.847 
-0.39 -0.63 -0.15866 0.54746 0.00978132 0.00971586 1.09511e-05 0.00974966 1.7156e-07 272.901 
-0.43 -0.61 -0.0468881 0.678238 0.00977697 0.00970551 4.95347e-06 0.009741 1.71377e-07 272.948 
-0.47 -0.59 0.0498173 0.561548 0.0097866 0.00971792 -4.91344e-06 0.00975497 1.71621e-07 272.952 
-0.37 -0.63 -0.227152 0.492307 0.00976736 0.00969812 1.09941e-05 0.00973412 1.71306e-07 272.869 
-0.41 -0.61 -0.176296 0.532069 0.00977723 0.00970924 1.07445e-05 0.00974141 1.71407e-07 272.913 
-0.45 -0.59 -0.0244133 0.412535 0.00978124 0.00971314 -6.13533e-07 0.00975131 1.71548e-07 272.965 
-0.49 -0.57 -0.060976 0.511018 0.00978112 0.00970521 -4.58967e-06 0.00974417 1.71469e-07 272.892 
-0.35 -0.63 -0.383954 0.551391 0.0097618 0.0097024 8.92367e-06 0.00973502 1.71296e-07 272.91 
-0.39 -0.61 -0.073533 0.469759 0.00977489 0.00970269 8.09967e-06 0.00973748 1.71293e-07 272.984 
-0.43 -0.59 -0.0542196 0.792656 0.00977034 0.00969758 5.08553e-06 0.00974219 1.71556e-07 272.697 
-0.47 -0.57 -0.0398358 0.517748 0.00977318 0.00971432 -4.32591e-06 0.0097415 1.71501e-07 272.765 
-0.37 -0.61 -0.14095 0.722264 0.00977444 0.00970473 1.41661e-05 0.00974077 1.71504e-07 272.74 
-0.41 -0.59 -0.0101807 0.506197 0.00977797 0.00970699 2.35733e-06 0.00974026 1.71416e-07 272.866 
-0.45 -0.57 -0.109159 0.593939 0.00977394 0.00970537 2.33191e-06 0.00974012 1.71381e-07 272.917 
-0.49 -0.55 -0.0258537 0.597992 0.00975943 0.00970379 -9.97734e-06 0.00973594 1.714e-07 272.77 
-0.35 -0.61 -0.135545 0.552919 0.00976827 0.00969993 1.03132e-05 0.00973437 1.71323e-07 272.849 
-0.39 -0.59 -0.085911 0.52815 0.00977495 0.00968885 1.16866e-05 0.00973706 1.71378e-07 272.837 
-0.43 -0.57 0.0226466 0.632704 0.00977697 0.00969811 3.42014e-06 0.00974031 1.71363e-07 272.952 
-0.47 -0.55 -0.128863 0.712002 0.00977065 0.00970306 7.75484e-07 0.00974272 1.71626e-07 272.601 
-0.33 -0.61 -0.363283 0.605176 0.00976672 0.00969737 1.79134e-05 0.00973643 1.71248e-07 273.027 
-0.37 -0.59 -0.127801 0.697968 0.00978032 0.00971476 1.95781e-05 0.00974949 1.71583e-07 272.858 
-0.41 -0.57 -0.0999092 0.65122 0.00976926 0.00970283 1.40438e-05 0.00973772 1.71287e-07 273.001 
-0.45 -0.55 -0.216957 0.504002 0.00976356 0.00970107 4.42826e-06 0.00972893 1.71257e-07 272.802 
-0.49 -0.53 0.019291 0.667747 0.0097663 0.00969671 -3.49342e-06 0.00973913 1.71413e-07 272.839 
-0.35 -0.59 -0.289506 0.693534 0.00977472 0.00969751 1.4185e-05 0.00973508 1.7144e-07 272.682 
-0.39 -0.57 -0.315997 0.731912 0.00977199 0.00968401 5.88665e-06 0.00973756 1.71321e-07 272.941 
-0.43 -0.55 -0.244274 0.526461 0.00976047 0.0096917 9.03871e-06 0.00973081 1.71325e-07 272.747 
-0.47 -0.53 -0.0259728 0.63058 0.00975848 0.00969826 -1.65235e-07 0.0097277 1.71267e-07 272.752 
-0.29 -0.57 -0.576284 0.648015 0.00977534 0.0097091 2.01246e-05 0.00974703 1.7144e-07 273.018 
-0.33 -0.55 -0.430366 0.805859 0.00978516 0.0097083 1.07813e-05 0.00974865 1.71586e-07 272.831 
-0.29 -0.61 -0.319021 0.588928 0.00976752 0.00971891 7.47164e-06 0.00974823 1.71651e-07 272.715 
-0.33 -0.59 -0.312531 0.829157 0.00977349 0.00970299 1.24598e-05 0.00973829 1.71274e-07 273.037 
-0.27 -0.61 -0.383787 0.534251 0.00977897 0.00970812 1.55557e-05 0.00974826 1.71625e-07 272.757 
-0.31 -0.59 -0.509459 0.623596 0.0097739 0.00970949 9.0847e-06 0.00974219 1.71461e-07 272.848 
-0.29 -0.59 -0.37596 0.453289 0.00977631 0.00972027 1.40396e-05 0.00974612 1.71528e-07 272.851 
-0.33 -0.57 -0.354855 0.779071 0.00977957 0.0097097 8.33324e-06 0.00974521 1.71427e-07 272.987 
-0.27 -0.59 -0.44868 0.625319 0.00976366 0.0096982 1.29137e-05 0.00973396 1.71353e-07 272.79 
-0.31 -0.57 -0.360609 0.629216 0.00977979 0.0097062 7.32516e-06 0.0097447 1.71523e-07 272.821 
-0.27 -0.57 -0.665782 0.641737 0.00977172 0.0097058 2.62859e-05 0.00975057 1.71601e-07 272.86 
-0.31 -0.55 -0.374629 0.846058 0.00977399 0.00970457 1.87587e-05 0.00974509 1.71458e-07 272.934 
-0.29 -0.55 -0.506713 0.662054 0.00976411 0.00969538 2.25883e-05 0.00973279 1.71334e-07 272.787 
-0.33 -0.53 -0.308032 1.00055 0.00976917 0.00969919 1.39371e-05 0.00973448 1.71249e-07 272.971 
-0.27 -0.55 -0.415656 0.592924 0.0097691 0.00971115 1.72276e-05 0.00973913 1.71385e-07 272.883 
-0.31 -0.53 -0.372798 0.721372 0.00976967 0.00970233 2.37501e-05 0.00974284 1.71479e-07 272.838 
-0.29 -0.53 -0.320984 0.67025 0.00978465 0.00970174 1.65232e-05 0.00974911 1.71496e-07 272.986 
-0.33 -0.51 -0.335467 0.769693 0.00976733 0.00969124 1.85188e-05 0.00973269 1.7117e-07 273.046 
-0.27 -0.53 -0.503074 0.818411 0.00977737 0.0097106 2.26301e-05 0.00974213 1.71367e-07 272.997 
-0.31 -0.51 -0.284443 0.833977 0.00976759 0.00970478 1.51439e-05 0.00973427 1.71337e-07 272.824 
-0.29 -0.51 -0.448881 0.823261 0.00975709 0.00969861 2.15206e-05 0.00973635 1.71391e-07 272.796 
-0.27 -0.51 -0.5363 1.09488 0.00975865 0.00970158 2.86558e-05 0.00973624 1.7128e-07 272.97 
-0.33 -0.65 -0.31202 0.450344 0.00977385 0.00970289 1.54473e-05 0.00973959 1.71337e-07 272.973 
-0.31 -0.65 -0.222499 0.617354 0.00977002 0.00971226 1.27349e-05 0.00974372 1.71423e-07 272.952 
-0.29 -0.65 -0.488188 0.485292 0.00976008 0.00970435 9.40511e-06 0.00973425 1.71168e-07 273.093 
-0.33 -0.63 -0.331747 0.493932 0.00976041 0.00970652 6.76405e-06 0.00974106 1.7147e-07 272.803 
-0.27 -0.65 -0.484517 0.467663 0.00977126 0.00972384 9.56185e-06 0.00974903 1.71472e-07 273.022 
-0.31 -0.63 -0.470241 0.670844 0.00976014 0.009704 1.67501e-05 0.0097365 1.71288e-07 272.965 
-0.25 -0.65 -0.546113 0.405711 0.00976566 0.00971543 1.09112e-05 0.00974274 1.71486e-07 272.824 
-0.29 -0.63 -0.424708 0.400352 0.00977152 0.00972111 1.13703e-05 0.00974655 1.71554e-07 272.823 
-0.27 -0.63 -0.43639 0.51046 0.0097577 0.00971349 1.24738e-05 0.00973799 1.71477e-07 272.706 
-0.31 -0.61 -0.381812 0.505265 0.00977165 0.00971281 1.00548e-05 0.00974931 1.71649e-07 272.749 
-0.49 -0.67 0.0157953 0.484897 0.00977145 0.00971617 -3.81281e-06 0.00974403 1.71551e-07 272.757 
-0.47 -0.67 0.0468786 0.36215 0.00976831 0.00972366 2.14315e-06 0.00974575 1.71563e-07 272.786 
-0.45 -0.67 0.0740007 0.449959 0.00976673 0.00972114 3.62715e-06 0.00974822 1.71564e-07 272.854 
-0.43 -0.67 -0.123442 0.610307 0.0097742 0.00971226 5.40411e-06 0.00974692 1.71616e-07 272.735 