ITEM: TIMESTEP
892500
ITEM: NUMBER OF CELLS
5000
ITEM: BOX BOUNDS ss ss pp
-1 1
-0.5 0.5
-0.5 0.5
ITEM: CELLS xc yc f_U[*] f_V[*] f_Tau[1] f_Tau[2] f_Tau[3] f_Press[*] f_Mrho[*] f_Ttra[*] 
-0.99 -0.49 -0.219886 0.339467 0.00899185 0.00876011 -3.63795e-05 0.00888374 1.56749e-07 272.158 
-0.97 -0.49 -0.727161 0.0628697 0.00898291 0.00876636 -3.31525e-05 0.00888204 1.56744e-07 272.115 
-0.95 -0.49 -0.778633 0.0638703 0.0089884 0.00874972 -3.19754e-05 0.00887916 1.5678e-07 271.965 
-0.93 -0.49 -1.00579 0.150381 0.00899895 0.00875784 -3.13519e-05 0.0088876 1.56874e-07 272.059 
-0.91 -0.49 -1.30596 0.0235955 0.00900781 0.00873347 -2.33973e-05 0.00887023 1.56716e-07 271.801 
-0.99 -0.47 -0.183998 0.63515 0.00902783 0.00878048 -2.17778e-05 0.00891555 1.57245e-07 272.271 
-0.89 -0.49 -1.63378 0.234891 0.00903151 0.00874881 -2.54351e-05 0.00889762 1.56902e-07 272.317 
-0.97 -0.47 -0.191532 0.403152 0.00902366 0.00876369 -3.97967e-05 0.00890679 1.56973e-07 272.475 
-0.87 -0.49 -1.83625 0.00878855 0.0090402 0.00876836 -1.28713e-05 0.00890286 1.57222e-07 271.923 
-0.95 -0.47 -0.581563 0.335246 0.00903861 0.00875683 -3.79486e-05 0.00890521 1.56974e-07 272.426 
-0.85 -0.49 -1.99017 0.200018 0.00904412 0.00876364 -4.59976e-06 0.00889996 1.56908e-07 272.378 
-0.93 -0.47 -0.930603 0.36661 0.00904314 0.00875041 -3.62939e-05 0.00890139 1.56917e-07 272.406 
-0.83 -0.49 -2.03824 -0.122549 0.00905301 0.00876883 3.12565e-06 0.00891288 1.57172e-07 272.316 
-0.91 -0.47 -1.20438 0.623542 0.00904548 0.00873626 -3.18337e-05 0.00890072 1.57065e-07 272.129 
-0.99 -0.45 -0.119694 0.860376 0.00905266 0.00878026 -3.22158e-05 0.00892668 1.57445e-07 272.264 
-0.81 -0.49 -2.18646 0.307911 0.00905573 0.00877087 6.43931e-06 0.0089189 1.57317e-07 272.249 
-0.89 -0.47 -1.75407 0.514957 0.00903818 0.00874079 -3.42681e-05 0.00889293 1.56961e-07 272.072 
-0.97 -0.45 -0.39401 0.604376 0.0090651 0.00877672 -3.66113e-05 0.00893215 1.57367e-07 272.567 
-0.79 -0.49 -2.55042 0.0703486 0.00905084 0.008766 2.50967e-05 0.00891976 1.57353e-07 272.212 
-0.87 -0.47 -2.10553 0.164412 0.00904253 0.00875244 -1.85433e-05 0.00890707 1.56973e-07 272.484 
-0.95 -0.45 -0.784389 0.912155 0.00904857 0.00875537 -4.26952e-05 0.00890778 1.56995e-07 272.467 
-0.77 -0.49 -2.59614 -0.0752123 0.00906329 0.00879938 3.5378e-05 0.00894275 1.57607e-07 272.474 
-0.85 -0.47 -2.25083 0.188954 0.00905357 0.00876049 -1.28349e-05 0.00890949 1.57062e-07 272.402 
-0.93 -0.45 -1.21849 0.539618 0.0090543 0.00873598 -4.54087e-05 0.00890232 1.57111e-07 272.098 
-0.83 -0.47 -2.5606 0.195974 0.00905691 0.0087606 -4.56563e-06 0.00891746 1.57202e-07 272.403 
-0.91 -0.45 -1.4058 0.908722 0.00906171 0.00874613 -3.30546e-05 0.00890663 1.57212e-07 272.056 
-0.99 -0.43 -0.200626 1.20446 0.00908171 0.00878204 -3.56423e-05 0.00894339 1.57861e-07 272.056 
-0.81 -0.47 -2.70731 0.450906 0.00906513 0.00876053 4.11313e-06 0.00892655 1.57507e-07 272.153 
-0.89 -0.45 -1.71697 0.821384 0.00907327 0.00872517 -3.37832e-05 0.00889405 1.57056e-07 271.941 
-0.97 -0.43 -0.416156 0.820038 0.00908404 0.00877627 -3.55156e-05 0.00894213 1.57585e-07 272.494 
-0.79 -0.47 -2.92714 0.302879 0.00908182 0.00875447 1.54831e-05 0.00893393 1.57663e-07 272.11 
-0.87 -0.45 -2.05104 0.643989 0.00907844 0.00874546 -2.39046e-05 0.00891398 1.57071e-07 272.525 
-0.95 -0.43 -0.630814 1.12168 0.00909363 0.00876537 -4.23155e-05 0.00893285 1.57568e-07 272.241 
-0.77 -0.47 -3.18089 0.0876301 0.00909259 0.00879356 1.80923e-05 0.00894911 1.58005e-07 271.981 
-0.85 -0.45 -2.3653 0.375852 0.00908423 0.00874782 -1.30576e-05 0.00892546 1.57275e-07 272.521 
-0.93 -0.43 -1.04291 1.16549 0.00909363 0.0087426 -4.28019e-05 0.00892215 1.57294e-07 272.387 
-0.75 -0.47 -3.27355 0.325728 0.00909372 0.0088072 2.38665e-05 0.00896005 1.57808e-07 272.654 
-0.83 -0.45 -2.61119 0.394379 0.00909432 0.00876215 -1.41777e-05 0.0089332 1.57554e-07 272.275 
-0.91 -0.43 -1.63273 0.980639 0.00908221 0.00873324 -4.34296e-05 0.00890683 1.57047e-07 272.348 
-0.99 -0.41 -0.170555 1.49427 0.00908262 0.00878009 -4.58033e-05 0.00894419 1.57855e-07 272.09 
-0.81 -0.45 -2.76743 0.759942 0.0090966 0.00874404 -1.07462e-05 0.00893177 1.57499e-07 272.327 
-0.89 -0.43 -1.48386 1.11339 0.0090798 0.00871782 -3.66412e-05 0.00890115 1.57018e-07 272.225 
-0.97 -0.41 -0.467454 1.10625 0.00909974 0.0087823 -5.08379e-05 0.00894789 1.57564e-07 272.706 
-0.79 -0.45 -3.11269 0.653309 0.00910142 0.00874861 5.8599e-06 0.00893259 1.57689e-07 272.024 
-0.87 -0.43 -1.71698 0.865296 0.00908487 0.00873926 -3.44024e-05 0.00891791 1.57245e-07 272.343 
-0.95 -0.41 -0.676109 1.39088 0.00910296 0.00876846 -3.98327e-05 0.0089431 1.57707e-07 272.312 
-0.77 -0.45 -3.38668 0.299993 0.00911385 0.00878424 1.23336e-05 0.00895203 1.57866e-07 272.31 
-0.85 -0.43 -2.01373 0.763267 0.00909663 0.0087447 -2.4247e-05 0.00892734 1.57453e-07 272.271 
-0.93 -0.41 -1.08582 1.73811 0.0090933 0.00873003 -4.36009e-05 0.00891686 1.57292e-07 272.229 
-0.75 -0.45 -3.62117 0.343558 0.0091211 0.00880812 1.46234e-05 0.00896731 1.5837e-07 271.907 
-0.83 -0.43 -2.3243 0.768968 0.00909965 0.00875427 -1.24771e-05 0.00893544 1.57546e-07 272.357 
-0.91 -0.41 -1.27356 1.28931 0.0091029 0.00873527 -3.40959e-05 0.00892764 1.57591e-07 272.041 
-0.99 -0.39 -0.132428 1.80499 0.00909449 0.00878754 -5.83192e-05 0.00895472 1.58155e-07 271.895 
-0.81 -0.43 -2.97516 0.956941 0.00910503 0.00874177 -8.33337e-06 0.0089397 1.57678e-07 272.258 
-0.89 -0.41 -1.79766 1.21726 0.00910334 0.00873097 -4.00749e-05 0.00892414 1.57306e-07 272.428 
-0.97 -0.39 -0.673708 1.40472 0.00910206 0.00877261 -5.07679e-05 0.0089458 1.57931e-07 272.009 
-0.79 -0.43 -3.0992 0.85382 0.00911215 0.0087364 -7.49961e-06 0.00893534 1.5769e-07 272.105 
-0.87 -0.41 -2.10131 1.19671 0.00909659 0.00872408 -3.46794e-05 0.00892471 1.57299e-07 272.458 
-0.95 -0.39 -0.944214 1.56653 0.009098 0.00875272 -3.95573e-05 0.00892921 1.57501e-07 272.246 
-0.77 -0.43 -3.39849 0.683644 0.00913293 0.00878527 -3.41467e-07 0.0089673 1.58141e-07 272.301 
-0.85 -0.41 -2.38562 1.00055 0.00909699 0.00874167 -3.11974e-05 0.00893376 1.57606e-07 272.202 
-0.93 -0.39 -0.546729 1.85693 0.00910641 0.00873919 -3.45673e-05 0.00893053 1.57575e-07 272.157 
-0.83 -0.41 -2.68184 1.16486 0.00911337 0.00874334 -2.60138e-05 0.00893825 1.57665e-07 272.238 
-0.91 -0.39 -1.14372 1.89335 0.00910321 0.00873037 -4.74316e-05 0.00892707 1.57492e-07 272.196 
-0.99 -0.37 0.0649288 2.04164 0.00909334 0.00879997 -5.8697e-05 0.00896287 1.58417e-07 271.692 
-0.81 -0.41 -2.7775 1.32316 0.00912798 0.00873733 -1.57041e-05 0.00894255 1.57834e-07 272.076 
-0.89 -0.39 -1.51597 1.55223 0.00911141 0.00873013 -4.45453e-05 0.00894022 1.57663e-07 272.301 
-0.97 -0.37 -0.216933 2.03207 0.00909798 0.00875687 -5.54174e-05 0.00894075 1.57758e-07 272.152 
-0.79 -0.41 -3.14373 1.03934 0.00914399 0.00874675 -1.76058e-05 0.00895637 1.58148e-07 271.956 
-0.87 -0.39 -1.83963 1.47338 0.00912558 0.00871717 -3.72061e-05 0.00893233 1.57538e-07 272.276 
-0.95 -0.37 -0.71438 1.72706 0.0091139 0.00874455 -4.86026e-05 0.00893321 1.57777e-07 271.89 
-0.77 -0.41 -3.72832 1.23302 0.00914421 0.00877565 -2.16104e-05 0.0089685 1.58305e-07 272.053 
-0.85 -0.39 -2.26278 1.43899 0.00914176 0.00874773 -3.97032e-05 0.00895251 1.58114e-07 271.897 
-0.93 -0.37 -1.34486 1.94194 0.00912341 0.00874442 -4.56594e-05 0.00894364 1.57797e-07 272.173 
-0.75 -0.41 -3.95464 1.08319 0.00916686 0.00879436 -9.7179e-06 0.00899287 1.58468e-07 272.513 
-0.83 -0.39 -2.59668 1.54893 0.00914188 0.00873464 -3.85147e-05 0.00894856 1.579e-07 272.147 
-0.91 -0.37 -1.33617 2.18573 0.0091376 0.00873151 -5.27008e-05 0.0089481 1.57763e-07 272.368 
-0.99 -0.35 -0.150507 2.03448 0.00910299 0.00879034 -7.74522e-05 0.00896332 1.58285e-07 271.931 
-0.81 -0.39 -2.90239 1.36588 0.00914589 0.00873244 -2.9544e-05 0.00894842 1.57774e-07 272.359 
-0.89 -0.37 -1.68358 2.06198 0.00913626 0.00872717 -4.63734e-05 0.00894508 1.57746e-07 272.305 
-0.97 -0.35 -0.30014 2.5655 0.00910912 0.00874502 -6.29508e-05 0.00894303 1.57977e-07 271.844 
-0.79 -0.39 -3.32148 1.70562 0.00914981 0.00874112 -2.70584e-05 0.00895897 1.58085e-07 272.142 
-0.87 -0.37 -2.24295 1.96443 0.00914057 0.00871539 -5.20577e-05 0.00893757 1.5759e-07 272.346 
-0.95 -0.35 -0.604283 2.03197 0.00911835 0.00873902 -6.18516e-05 0.00893533 1.57832e-07 271.86 
-0.77 -0.39 -3.79823 1.5729 0.0091621 0.00878237 -2.4566e-05 0.00898742 1.58538e-07 272.228 
-0.85 -0.37 -2.5599 1.72019 0.00914388 0.00874592 -4.97991e-05 0.00895001 1.57979e-07 272.053 
-0.93 -0.35 -1.09038 2.48745 0.00912775 0.00874211 -5.73351e-05 0.00895018 1.57835e-07 272.307 
-0.83 -0.37 -2.85649 1.81422 0.00914662 0.00872065 -3.79327e-05 0.00894208 1.57875e-07 271.992 
-0.91 -0.35 -1.51019 2.33518 0.00911841 0.00873053 -4.70906e-05 0.0089317 1.57555e-07 272.228 
-0.81 -0.37 -3.26859 1.63477 0.00916036 0.00872772 -3.07865e-05 0.00895511 1.57983e-07 272.202 
-0.89 -0.35 -1.8069 2.60308 0.00912638 0.00872575 -5.30983e-05 0.00893456 1.57632e-07 272.182 
-0.79 -0.37 -3.60309 2.19342 0.00916601 0.00874929 -3.26931e-05 0.00897384 1.58355e-07 272.13 
-0.87 -0.35 -2.23664 2.18179 0.00913775 0.0087244 -5.33884e-05 0.00894105 1.57814e-07 272.065 
-0.77 -0.37 -3.8758 2.1812 0.00916528 0.00877529 -2.86557e-05 0.00898007 1.58509e-07 272.055 
-0.85 -0.35 -2.54083 2.16383 0.00914856 0.00872455 -5.32611e-05 0.00893753 1.57828e-07 271.934 
-0.83 -0.35 -3.00702 2.13875 0.00915891 0.00872271 -4.92506e-05 0.00894396 1.57971e-07 271.883 
-0.81 -0.35 -3.44005 2.21747 0.00916517 0.00872819 -4.92653e-05 0.00895771 1.581e-07 272.078 
-0.79 -0.35 -3.68132 2.39135 0.00918397 0.00874006 -3.88408e-05 0.00897016 1.58349e-07 272.028 
-0.77 -0.35 -3.86951 2.55769 0.00919287 0.00876942 -3.12287e-05 0.00898796 1.5851e-07 272.292 
-0.75 -0.35 -4.18681 2.43989 0.00919152 0.00878191 -2.33344e-05 0.00899624 1.58751e-07 272.128 
-0.75 -0.49 -2.74411 0.200157 0.00908169 0.00880473 2.97844e-05 0.00894686 1.57946e-07 272.014 
-0.75 -0.43 -3.89068 0.766987 0.00914572 0.0088039 -2.39325e-09 0.00898574 1.58469e-07 272.295 
-0.75 -0.39 -4.65215 1.55143 0.00916055 0.00878043 -2.28816e-05 0.00898643 1.58473e-07 272.308 
-0.75 -0.37 -4.14184 2.01951 0.00916533 0.00878096 -2.24872e-05 0.00898353 1.58404e-07 272.34 
-0.77 -0.33 -4.02977 2.77221 0.00916032 0.00875345 -4.20656e-05 0.00895867 1.58293e-07 271.777 
-0.73 -0.49 -3.08715 0.187864 0.00908184 0.00881552 2.24163e-05 0.00895879 1.58119e-07 272.079 
-0.73 -0.47 -3.24042 0.120349 0.00909944 0.0088088 2.56735e-05 0.00896889 1.5825e-07 272.16 
-0.73 -0.45 -3.74548 0.277348 0.00913076 0.00880676 1.47237e-05 0.00897705 1.58459e-07 272.048 
-0.73 -0.43 -4.4864 0.859851 0.00915695 0.00880392 4.08293e-06 0.0089942 1.58621e-07 272.291 
-0.73 -0.41 -4.35117 1.15978 0.0091731 0.0088036 -5.07685e-06 0.00900185 1.58679e-07 272.422 
-0.73 -0.39 -4.74898 1.44158 0.00917153 0.00880185 -9.67956e-06 0.00899802 1.58664e-07 272.332 
-0.73 -0.37 -4.63711 1.72316 0.00916873 0.00878296 -2.61909e-05 0.00898671 1.58558e-07 272.172 
-0.73 -0.35 -4.63953 2.13132 0.00918295 0.00878338 -1.90416e-05 0.00899076 1.58654e-07 272.129 
-0.81 -0.29 -3.14675 3.35621 0.00914805 0.00871454 -7.02615e-05 0.00893786 1.58014e-07 271.625 
-0.89 -0.27 -1.84283 3.75709 0.00911612 0.00869205 -8.30415e-05 0.00892155 1.5746e-07 272.083 
-0.97 -0.25 -0.583175 3.91478 0.00909286 0.00871535 -0.000104512 0.00891292 1.5735e-07 272.009 
-0.83 -0.29 -2.95695 3.25031 0.00913914 0.00872076 -6.87118e-05 0.00894217 1.5766e-07 272.366 
-0.91 -0.27 -1.26513 3.90473 0.00911506 0.00871386 -8.69673e-05 0.00893063 1.57738e-07 271.879 
-0.99 -0.25 -0.201115 3.81632 0.00909313 0.00874113 -0.000113599 0.00892983 1.57766e-07 271.807 
-0.79 -0.29 -3.47013 3.31614 0.00916775 0.00872529 -6.06445e-05 0.00895081 1.58079e-07 271.907 
-0.87 -0.27 -2.4106 3.82873 0.00912652 0.00871936 -7.16404e-05 0.00894269 1.57922e-07 271.929 
-0.95 -0.25 -0.685396 3.88265 0.00910297 0.00872698 -0.000112064 0.00892564 1.57664e-07 271.855 
-0.77 -0.29 -3.95389 3.36829 0.00918205 0.00874291 -5.19629e-05 0.00897257 1.5858e-07 271.706 
-0.85 -0.27 -2.56147 3.56378 0.0091376 0.0087204 -7.16463e-05 0.0089351 1.57756e-07 271.984 
-0.93 -0.25 -0.97905 4.01059 0.00909791 0.00870669 -0.000107429 0.0089151 1.57422e-07 271.95 
-0.75 -0.29 -4.46969 3.27472 0.00918624 0.00876806 -5.41891e-05 0.00899142 1.58767e-07 271.956 
-0.83 -0.27 -2.92338 3.5525 0.00915346 0.00873039 -7.10076e-05 0.00895344 1.58177e-07 271.816 
-0.91 -0.25 -1.3272 4.22116 0.00911246 0.00870618 -9.28259e-05 0.00891977 1.57571e-07 271.837 
-0.99 -0.23 -0.0167448 3.952 0.0090647 0.00873301 -0.000127419 0.00891488 1.57445e-07 271.906 
-0.81 -0.27 -3.49249 3.64413 0.00915614 0.00871626 -8.19196e-05 0.00894282 1.58061e-07 271.694 
-0.89 -0.25 -1.74878 4.38085 0.00912169 0.00868774 -8.52344e-05 0.00892549 1.57468e-07 272.188 
-0.97 -0.23 -0.113007 4.17868 0.00908767 0.00872341 -0.000119056 0.0089222 1.57589e-07 271.879 
-0.79 -0.27 -3.93828 3.69157 0.00916356 0.00870455 -7.53642e-05 0.00893796 1.58094e-07 271.49 
-0.87 -0.25 -2.18353 4.18555 0.00914448 0.00870963 -8.57542e-05 0.0089479 1.57968e-07 272.008 
-0.95 -0.23 -0.743926 4.24844 0.00909644 0.00871306 -0.000119719 0.00891668 1.57426e-07 271.992 
-0.77 -0.27 -4.20285 3.79247 0.00917843 0.00874449 -6.30989e-05 0.00897668 1.58568e-07 271.851 
-0.85 -0.25 -2.60834 3.92198 0.0091613 0.0087253 -8.95062e-05 0.00895257 1.58059e-07 271.993 
-0.93 -0.23 -1.13352 4.31203 0.00911217 0.00870888 -0.000113351 0.0089248 1.57547e-07 272.031 
-0.83 -0.25 -3.11488 3.99241 0.00916276 0.00871415 -8.31077e-05 0.00894091 1.58274e-07 271.27 
-0.91 -0.23 -1.32656 4.59454 0.00911921 0.00868674 -0.000103835 0.0089204 1.57476e-07 272.019 
-0.99 -0.21 -0.0230317 4.05955 0.00909595 0.00872825 -0.000133786 0.00892853 1.57795e-07 271.717 
-0.81 -0.25 -3.33698 4.11354 0.00916492 0.0087315 -7.60573e-05 0.00895447 1.58356e-07 271.542 
-0.89 -0.23 -1.86172 4.89903 0.00913371 0.00868884 -9.57459e-05 0.00892752 1.57741e-07 271.779 
-0.97 -0.21 -0.109039 4.35055 0.00910224 0.00870107 -0.000130233 0.00891614 1.57668e-07 271.559 
-0.79 -0.25 -3.81894 4.18562 0.00915252 0.00869831 -8.16035e-05 0.00893542 1.57963e-07 271.637 
-0.87 -0.23 -2.26793 4.57217 0.00913818 0.00871308 -0.000103878 0.00893653 1.5797e-07 271.659 
-0.95 -0.21 -0.365753 4.69453 0.00911122 0.00871925 -0.000125899 0.00893036 1.57544e-07 272.205 
-0.77 -0.25 -4.28492 3.90918 0.00915567 0.00873338 -8.17314e-05 0.00894778 1.58031e-07 271.896 
-0.85 -0.23 -2.78449 4.5903 0.00913731 0.0087168 -9.30505e-05 0.00893417 1.5786e-07 271.777 
-0.93 -0.21 -1.07235 4.7824 0.00911558 0.00869633 -0.000121503 0.00891645 1.57505e-07 271.849 
-0.83 -0.23 -3.13872 4.29096 0.00913983 0.00871019 -8.00876e-05 0.00893147 1.57852e-07 271.708 
-0.91 -0.21 -1.45165 4.9065 0.00912258 0.00867931 -0.000112537 0.00891857 1.57502e-07 271.919 
-0.99 -0.19 -0.152478 4.21271 0.00907591 0.00871998 -0.000146308 0.00891876 1.57594e-07 271.766 
-0.81 -0.23 -3.58186 4.21883 0.0091526 0.00872311 -8.94533e-05 0.00895116 1.58139e-07 271.814 
-0.89 -0.21 -1.68186 5.43014 0.00913809 0.0086955 -0.000111776 0.00893926 1.57892e-07 271.877 
-0.97 -0.19 -0.63407 4.76644 0.00908979 0.00870037 -0.000147464 0.00890157 1.57652e-07 271.142 
-0.79 -0.23 -3.58083 4.6692 0.00917066 0.00870701 -8.13368e-05 0.00894619 1.58141e-07 271.659 
-0.87 -0.21 -2.11623 5.01159 0.00914358 0.00869594 -0.000110146 0.00893449 1.58005e-07 271.537 
-0.95 -0.19 -0.913732 5.06868 0.00910493 0.00871601 -0.000130866 0.00891148 1.57545e-07 271.628 
-0.77 -0.23 -3.92757 4.33899 0.00917262 0.00873298 -8.74297e-05 0.00896301 1.58295e-07 271.905 
-0.85 -0.21 -2.74864 5.02679 0.00915339 0.00870642 -9.1305e-05 0.00894504 1.57914e-07 272.014 
-0.93 -0.19 -0.930996 5.19194 0.00911442 0.00868678 -0.000122939 0.00891656 1.57723e-07 271.477 
-0.75 -0.23 -4.34419 4.01984 0.00917291 0.00875325 -8.71991e-05 0.00897642 1.58525e-07 271.916 
-0.83 -0.21 -3.22921 4.56415 0.00916724 0.0087162 -9.5843e-05 0.00895249 1.57987e-07 272.115 
-0.91 -0.19 -1.40766 5.31795 0.00911946 0.00867426 -0.00012558 0.0089097 1.5742e-07 271.79 
-0.81 -0.21 -3.50387 4.61999 0.00916197 0.00871511 -8.32063e-05 0.00895689 1.58306e-07 271.7 
-0.89 -0.19 -1.85438 5.61281 0.00912755 0.00868841 -0.000114985 0.00892362 1.57619e-07 271.87 
-0.79 -0.21 -3.85954 4.89379 0.00915351 0.00871093 -9.49969e-05 0.0089475 1.58135e-07 271.709 
-0.87 -0.19 -2.17542 5.46773 0.00913129 0.00869515 -0.000104192 0.00892758 1.57731e-07 271.798 
-0.77 -0.21 -4.17624 4.69785 0.00916603 0.0087327 -9.2094e-05 0.00895911 1.58294e-07 271.788 
-0.85 -0.19 -2.43682 5.50343 0.00913471 0.00869484 -0.000109949 0.00892884 1.57971e-07 271.424 
-0.75 -0.21 -4.7016 4.56868 0.00917452 0.00874893 -9.49789e-05 0.00897583 1.58472e-07 271.99 
-0.83 -0.19 -2.89715 5.15594 0.00912917 0.0087092 -0.000101619 0.00893396 1.57834e-07 271.816 
-0.81 -0.19 -3.31119 4.99394 0.00914951 0.00870439 -9.76275e-05 0.00893796 1.58048e-07 271.569 
-0.79 -0.19 -3.8942 5.12277 0.00917058 0.00872751 -8.93486e-05 0.00896697 1.58466e-07 271.732 
-0.77 -0.19 -4.14549 5.33419 0.00917251 0.00873689 -0.000105998 0.00896439 1.5857e-07 271.476 
-0.99 -0.33 -0.185773 2.42182 0.00909624 0.00877635 -8.39344e-05 0.00895621 1.58049e-07 272.121 
-0.97 -0.33 -0.474718 2.59507 0.00910698 0.00874521 -7.78546e-05 0.0089409 1.57878e-07 271.951 
-0.91 -0.33 -1.37495 2.83918 0.00914776 0.00874191 -5.85682e-05 0.00894647 1.57902e-07 272.079 
-0.99 -0.31 -0.166299 2.92583 0.00908076 0.00875505 -9.0197e-05 0.00893215 1.57714e-07 271.967 
-0.97 -0.31 -0.393427 2.59872 0.00909748 0.00874656 -7.88475e-05 0.00893556 1.5787e-07 271.801 
-0.87 -0.33 -2.06453 2.6279 0.0091464 0.00873058 -6.46242e-05 0.00894913 1.57991e-07 272.007 
-0.95 -0.31 -0.941206 3.18094 0.00910051 0.00872353 -7.84908e-05 0.00892347 1.57546e-07 271.992 
-0.85 -0.33 -2.25804 2.44114 0.00914521 0.00871887 -6.21069e-05 0.00894459 1.57801e-07 272.195 
-0.93 -0.31 -1.4506 3.1674 0.00911627 0.00872915 -8.06689e-05 0.00893482 1.57758e-07 271.972 
-0.91 -0.31 -1.77927 2.97644 0.0091386 0.00872749 -7.02238e-05 0.00894564 1.57781e-07 272.262 
-0.99 -0.29 -0.102046 3.08598 0.00906372 0.00875053 -0.000101696 0.00892452 1.57629e-07 271.881 
-0.81 -0.33 -3.2844 2.55735 0.00915865 0.00872214 -4.79434e-05 0.00895694 1.57958e-07 272.301 
-0.89 -0.31 -1.78626 3.31091 0.00914909 0.0087206 -5.86767e-05 0.00895037 1.57956e-07 272.105 
-0.97 -0.29 -0.584968 3.23775 0.00907469 0.0087268 -9.58257e-05 0.00891355 1.57521e-07 271.733 
-0.87 -0.31 -2.12965 2.88654 0.00915518 0.00873416 -6.42465e-05 0.00894995 1.58127e-07 271.798 
-0.95 -0.29 -0.879172 3.58868 0.00909722 0.00871958 -8.96862e-05 0.00892476 1.57536e-07 272.048 
-0.85 -0.31 -2.73113 2.75609 0.00914528 0.00871184 -5.91473e-05 0.00893813 1.57868e-07 271.884 
-0.93 -0.29 -1.19217 3.3764 0.00910737 0.00873793 -8.94356e-05 0.00893079 1.57631e-07 272.068 
-0.83 -0.31 -2.8904 3.0879 0.00914042 0.00871929 -5.22807e-05 0.00894628 1.57782e-07 272.28 
-0.91 -0.29 -1.3821 3.46328 0.00910027 0.00870942 -8.1832e-05 0.00891959 1.57513e-07 271.932 
-0.99 -0.27 -0.1677 3.36668 0.00907908 0.00874546 -0.000111332 0.00893015 1.57848e-07 271.676 
-0.81 -0.31 -3.24308 3.07146 0.00914549 0.00871611 -5.52912e-05 0.00894563 1.57863e-07 272.121 
-0.89 -0.29 -1.69831 3.29611 0.00911469 0.0087117 -7.68103e-05 0.00892781 1.57661e-07 271.926 
-0.97 -0.27 -0.503201 3.65535 0.00908252 0.00872012 -0.000111032 0.00891569 1.57451e-07 271.919 
-0.79 -0.31 -3.64394 2.90226 0.00915327 0.0087307 -5.22039e-05 0.00895182 1.58046e-07 271.993 
-0.87 -0.29 -2.12146 3.43465 0.00911881 0.00872373 -5.22576e-05 0.00893257 1.5786e-07 271.728 
-0.95 -0.27 -0.734431 3.73491 0.00908745 0.00871556 -9.88259e-05 0.00891549 1.57447e-07 271.921 
-0.77 -0.31 -3.8817 3.13863 0.00916243 0.00874411 -4.49377e-05 0.00895106 1.58326e-07 271.489 
-0.85 -0.29 -2.6229 3.27687 0.00913012 0.00871383 -5.62907e-05 0.00893725 1.57965e-07 271.689 
-0.93 -0.27 -0.839774 3.61761 0.00910261 0.00872366 -9.2978e-05 0.00892275 1.57435e-07 272.162 
-0.95 -0.33 -0.613639 2.50939 0.00911743 0.00872574 -6.79762e-05 0.00893075 1.57703e-07 271.943 
-0.93 -0.33 -1.01052 2.86812 0.00912647 0.0087292 -5.634e-05 0.00893602 1.57728e-07 272.06 
-0.89 -0.33 -2.00068 2.85843 0.00914883 0.00871947 -5.56188e-05 0.00893876 1.5777e-07 272.071 
-0.83 -0.33 -2.80895 2.73101 0.00915031 0.00872131 -5.63255e-05 0.00895529 1.57989e-07 272.197 
-0.75 -0.31 -4.23337 2.78096 0.00917686 0.00877047 -4.08185e-05 0.00899059 1.5873e-07 271.993 
-0.75 -0.27 -4.35715 3.78328 0.00919838 0.0087667 -6.18823e-05 0.00898987 1.58737e-07 271.96 
-0.75 -0.25 -4.42741 3.9708 0.00917042 0.00876125 -7.08971e-05 0.00897011 1.58498e-07 271.772 
-0.75 -0.19 -4.57217 4.97822 0.00916642 0.00874059 -0.000101241 0.00896945 1.58687e-07 271.428 
-0.79 -0.33 -3.71807 2.58966 0.009153 0.00873656 -4.33742e-05 0.0089613 1.5816e-07 272.084 
-0.75 -0.33 -4.2944 2.54973 0.00916693 0.00877043 -2.57554e-05 0.00897963 1.58593e-07 271.897 
-0.81 -0.17 -3.62233 5.7354 0.00913532 0.00870008 -0.000106586 0.00892296 1.57723e-07 271.672 
-0.79 -0.17 -4.07142 5.54188 0.00913932 0.00873089 -0.00011126 0.00895128 1.58155e-07 271.789 
-0.75 -0.17 -4.40407 5.44831 0.00916288 0.00874151 -0.000104228 0.00896163 1.58368e-07 271.737 
-0.73 -0.31 -4.85714 2.83335 0.00918583 0.00879093 -4.70226e-05 0.00899997 1.58654e-07 272.409 
-0.73 -0.29 -4.52026 3.16768 0.00919459 0.00878899 -5.0499e-05 0.00900267 1.59074e-07 271.771 
-0.73 -0.27 -5.04031 3.3142 0.00919788 0.00878643 -6.34464e-05 0.00900256 1.58943e-07 271.991 
-0.73 -0.25 -4.52485 3.75598 0.00918984 0.00877875 -6.4238e-05 0.00899742 1.59078e-07 271.605 
-0.73 -0.23 -4.77618 4.14258 0.00917788 0.0087742 -7.47447e-05 0.00898396 1.58756e-07 271.749 
-0.73 -0.21 -4.982 4.46873 0.00919224 0.00877046 -9.45631e-05 0.00898048 1.58597e-07 271.916 
-0.73 -0.19 -4.78243 4.84192 0.00916665 0.00877626 -9.89677e-05 0.00898232 1.58745e-07 271.718 
-0.79 -0.05 -3.18349 7.64017 0.00905072 0.00870849 -0.000157448 0.00889586 1.57451e-07 271.314 
-0.87 -0.03 -2.15091 8.48001 0.00899039 0.00861419 -0.000183137 0.00882225 1.56249e-07 271.139 
-0.83 -0.05 -2.67959 8.05414 0.00902724 0.00868138 -0.000149343 0.00887672 1.56955e-07 271.587 
-0.91 -0.03 -1.76648 7.98016 0.00899047 0.00862274 -0.000186006 0.00882464 1.5612e-07 271.438 
-0.81 -0.05 -2.85507 7.76254 0.00903954 0.00869362 -0.000138411 0.00888816 1.57404e-07 271.161 
-0.89 -0.03 -1.7652 8.39304 0.00898007 0.00862575 -0.000179051 0.00882411 1.56209e-07 271.266 
-0.77 -0.05 -3.5407 7.08425 0.00906512 0.00874124 -0.000156172 0.0089199 1.57752e-07 271.529 
-0.85 -0.03 -2.47398 8.03843 0.00899417 0.00864727 -0.000173379 0.00884645 1.56637e-07 271.209 
-0.75 -0.05 -3.79556 7.12362 0.00907693 0.00876745 -0.000168248 0.00892817 1.57859e-07 271.596 
-0.83 -0.03 -2.67627 8.31423 0.00901873 0.00866801 -0.000168335 0.00886896 1.57065e-07 271.158 
-0.81 -0.03 -3.11928 7.95646 0.00903328 0.00868735 -0.00015659 0.00887932 1.57289e-07 271.089 
-0.79 -0.03 -3.14264 8.03692 0.00905471 0.00872231 -0.000155626 0.00890176 1.57461e-07 271.478 
-0.77 -0.03 -3.49792 7.27497 0.00905537 0.00874511 -0.000165689 0.00891533 1.57625e-07 271.608 
-0.95 -0.17 -0.744594 5.17529 0.00908078 0.00869314 -0.000151097 0.00889213 1.57313e-07 271.439 
-0.99 -0.15 -0.18601 4.69142 0.00904676 0.00871076 -0.000174997 0.0088935 1.57166e-07 271.734 
-0.89 -0.17 -1.84121 5.82386 0.0091143 0.00867217 -0.000125219 0.00890968 1.5733e-07 271.945 
-0.97 -0.15 -0.472381 5.5544 0.00906309 0.00870083 -0.000167999 0.00889208 1.57292e-07 271.472 
-0.95 -0.15 -0.805031 5.6867 0.00907158 0.00867632 -0.000157438 0.00888618 1.57243e-07 271.378 
-0.93 -0.15 -1.10886 5.84531 0.00907779 0.00866953 -0.000141179 0.00889411 1.57345e-07 271.443 
-0.83 -0.17 -3.00598 5.52783 0.00913926 0.00871317 -0.000100066 0.00893883 1.57909e-07 271.834 
-0.91 -0.15 -1.38144 6.25348 0.00909212 0.0086775 -0.000142313 0.00890298 1.57453e-07 271.527 
-0.99 -0.13 -0.273629 5.11825 0.00904642 0.00871054 -0.00019166 0.00888889 1.573e-07 271.363 
-0.89 -0.15 -1.60143 6.07852 0.00908789 0.00865757 -0.000126858 0.00889006 1.5722e-07 271.536 
-0.97 -0.13 -0.511399 5.90445 0.00905884 0.00868764 -0.000167459 0.00888208 1.57174e-07 271.372 
-0.87 -0.15 -2.09105 6.12895 0.00909345 0.0086863 -0.000125349 0.00891453 1.57382e-07 272.004 
-0.95 -0.13 -0.892002 6.07959 0.0090651 0.00866447 -0.000167668 0.00887992 1.57282e-07 271.119 
-0.77 -0.17 -4.29193 5.30726 0.00915339 0.00873499 -0.000103807 0.0089585 1.58513e-07 271.394 
-0.85 -0.15 -2.38251 6.44289 0.00910379 0.00867986 -0.000110636 0.0089105 1.57584e-07 271.531 
-0.93 -0.13 -1.24708 6.01495 0.00907958 0.00866687 -0.000161535 0.0088912 1.57196e-07 271.613 
-0.83 -0.15 -2.88785 6.04559 0.00912336 0.00870727 -0.000114031 0.00893148 1.57886e-07 271.65 
-0.91 -0.13 -1.6929 6.68744 0.00908306 0.00866086 -0.000146739 0.00889608 1.5735e-07 271.495 
-0.99 -0.11 -0.1598 5.51685 0.00903997 0.00869719 -0.000185538 0.00888127 1.57062e-07 271.54 
-0.81 -0.15 -3.39454 6.13007 0.00913218 0.00871576 -0.000109738 0.00894113 1.57895e-07 271.928 
-0.89 -0.13 -1.90518 6.21128 0.00909519 0.00865417 -0.000134205 0.00889419 1.57537e-07 271.116 
-0.97 -0.11 -0.610544 6.18408 0.00903397 0.00867414 -0.000186883 0.00887297 1.56934e-07 271.508 
-0.79 -0.15 -3.82593 5.81831 0.00913222 0.00872588 -0.000116933 0.00894736 1.58157e-07 271.667 
-0.87 -0.13 -2.43602 6.78052 0.00910461 0.00866956 -0.000127373 0.00891334 1.57768e-07 271.301 
-0.95 -0.11 -0.94825 6.4572 0.00904621 0.00866212 -0.000176429 0.00887174 1.56962e-07 271.421 
-0.77 -0.15 -4.27122 5.62841 0.00914116 0.00873444 -0.000113384 0.00895338 1.58418e-07 271.402 
-0.85 -0.13 -2.85553 6.41355 0.0091178 0.00868559 -0.000126855 0.00891983 1.57762e-07 271.509 
-0.93 -0.11 -1.28564 6.5185 0.00905866 0.00865887 -0.000173042 0.00887902 1.57282e-07 271.092 
-0.75 -0.15 -4.55599 5.77845 0.00914469 0.00874266 -0.000111199 0.00896278 1.58495e-07 271.555 
-0.83 -0.13 -2.85194 6.66516 0.00912629 0.00869868 -0.000123386 0.00893054 1.57697e-07 271.948 
-0.91 -0.11 -1.57981 6.95373 0.00906322 0.0086465 -0.000154958 0.00887221 1.57143e-07 271.124 
-0.99 -0.09 -0.0240288 5.90706 0.00899899 0.00869193 -0.000202866 0.00885846 1.56708e-07 271.455 
-0.81 -0.13 -3.33279 6.47981 0.0091158 0.00870922 -0.000112365 0.00892751 1.58048e-07 271.25 
-0.89 -0.11 -1.91834 6.78264 0.00907588 0.00864886 -0.00014658 0.00888146 1.57412e-07 270.943 
-0.97 -0.09 -0.519944 6.7067 0.00902176 0.00866617 -0.000193066 0.00886997 1.57001e-07 271.3 
-0.79 -0.13 -3.53466 6.38416 0.00913151 0.00873263 -0.000120419 0.00894882 1.58216e-07 271.61 
-0.87 -0.11 -2.33299 7.07469 0.00908909 0.00865886 -0.000144211 0.00889796 1.57645e-07 271.044 
-0.95 -0.09 -0.999763 6.80197 0.00903513 0.00866735 -0.000181369 0.00887819 1.57163e-07 271.271 
-0.77 -0.13 -4.02082 6.06245 0.00913189 0.00872659 -0.000117737 0.00894229 1.58071e-07 271.661 
-0.85 -0.11 -2.5099 6.71573 0.00910206 0.00868505 -0.000128987 0.00890765 1.57718e-07 271.214 
-0.93 -0.09 -1.29722 6.77059 0.00903351 0.00864084 -0.000179824 0.00886168 1.57092e-07 270.889 
-0.83 -0.11 -2.97844 7.08649 0.00909562 0.00868591 -0.000125319 0.00891539 1.57682e-07 271.511 
-0.91 -0.09 -1.37412 7.10712 0.00903767 0.00863196 -0.000161028 0.00885778 1.56943e-07 271.027 
-0.99 -0.07 -0.508044 6.30533 0.00900788 0.00867964 -0.000205507 0.00885771 1.56667e-07 271.503 
-0.81 -0.11 -3.30087 6.60199 0.00912507 0.00871914 -0.00012777 0.00893635 1.57817e-07 271.918 
-0.89 -0.09 -2.01868 7.31858 0.00904972 0.00864915 -0.000164215 0.0088697 1.57258e-07 270.848 
-0.97 -0.07 -0.703101 7.04289 0.00899327 0.00865688 -0.000200984 0.00884992 1.56596e-07 271.387 
-0.79 -0.11 -3.49935 6.69434 0.00912766 0.00872251 -0.000125053 0.00894368 1.58225e-07 271.439 
-0.87 -0.09 -2.28592 7.32579 0.00906566 0.00865117 -0.000159773 0.00888183 1.57415e-07 270.949 
-0.95 -0.07 -0.85021 7.03342 0.00899905 0.00866078 -0.000189884 0.00885297 1.56569e-07 271.528 
-0.77 -0.11 -3.9251 6.31488 0.00912931 0.00872015 -0.000125228 0.00894336 1.58064e-07 271.705 
-0.85 -0.09 -2.7046 7.20794 0.0090685 0.00866315 -0.00014599 0.00888079 1.5725e-07 271.201 
-0.93 -0.07 -1.14031 7.18106 0.00900425 0.00863188 -0.000180566 0.00884849 1.56731e-07 271.108 
-0.75 -0.11 -4.28971 6.2677 0.00913906 0.00876092 -0.000123693 0.00896297 1.58507e-07 271.54 
-0.83 -0.09 -3.04582 7.14759 0.00909137 0.00869462 -0.000138653 0.00891334 1.57608e-07 271.577 
-0.91 -0.07 -1.72207 7.45141 0.00902153 0.00862784 -0.000180874 0.00885163 1.56635e-07 271.372 
-0.99 -0.05 0.0545483 6.72538 0.00897347 0.00866578 -0.000214328 0.00883916 1.56368e-07 271.453 
-0.81 -0.09 -3.31109 7.14773 0.00909078 0.00871314 -0.000139967 0.00891617 1.57736e-07 271.443 
-0.89 -0.07 -1.8987 7.66815 0.00903811 0.00864944 -0.000178801 0.00886238 1.56984e-07 271.097 
-0.97 -0.05 -0.483935 7.19864 0.00900348 0.00866129 -0.000209302 0.00885332 1.56647e-07 271.403 
-0.79 -0.09 -3.71512 6.82176 0.00909654 0.00871861 -0.000123948 0.0089235 1.57884e-07 271.41 
-0.87 -0.07 -2.24236 7.78217 0.00903226 0.0086323 -0.000157146 0.00885734 1.56875e-07 271.132 
-0.95 -0.05 -0.655046 7.34994 0.00900137 0.00863934 -0.000196641 0.00884548 1.56428e-07 271.543 
-0.77 -0.09 -3.87302 6.82387 0.00909739 0.00872085 -0.000122449 0.00893164 1.58011e-07 271.441 
-0.85 -0.07 -2.6231 7.49365 0.00904196 0.00865657 -0.00015069 0.00887278 1.56918e-07 271.529 
-0.93 -0.05 -1.23466 7.64014 0.00899968 0.00862714 -0.000181853 0.0088371 1.56402e-07 271.33 
-0.75 -0.09 -4.133 6.47784 0.00908915 0.0087531 -0.000128654 0.00893596 1.58061e-07 271.486 
-0.83 -0.07 -2.98462 7.60364 0.00904751 0.00868997 -0.000145827 0.00888423 1.57139e-07 271.498 
-0.91 -0.05 -1.35598 7.86725 0.00899717 0.00862731 -0.000184836 0.00883541 1.56423e-07 271.241 
-0.99 -0.03 -0.150961 7.01112 0.00896159 0.00866442 -0.000230865 0.0088319 1.56236e-07 271.458 
-0.81 -0.07 -3.49811 7.60296 0.00904973 0.00870655 -0.000146257 0.0088945 1.57455e-07 271.266 
-0.89 -0.05 -1.77481 7.96936 0.00900224 0.00863533 -0.000179023 0.00884309 1.56779e-07 270.861 