ITEM: TIMESTEP
1006000
ITEM: NUMBER OF CELLS
5000
ITEM: BOX BOUNDS ss ss pp
-1 1
-0.5 0.5
-0.5 0.5
ITEM: CELLS xc yc f_U[*] f_V[*] f_Tau[1] f_Tau[2] f_Tau[3] f_Press[*] f_Mrho[*] f_Ttra[*] 
-0.99 -0.49 -0.21032 0.290157 0.00899333 0.00874722 -2.82627e-05 0.00888159 1.5665e-07 272.265 
-0.97 -0.49 -0.529543 0.047672 0.00899055 0.00874788 -3.07046e-05 0.00888097 1.56582e-07 272.364 
-0.95 -0.49 -0.651666 0.0465248 0.00899023 0.00874346 -3.2088e-05 0.00887606 1.56635e-07 272.121 
-0.93 -0.49 -0.868831 0.130629 0.00899977 0.00874998 -2.30137e-05 0.00888188 1.56764e-07 272.075 
-0.91 -0.49 -1.14164 0.110166 0.00900383 0.00872608 -2.24449e-05 0.00886908 1.56511e-07 272.123 
-0.99 -0.47 -0.169396 0.576413 0.00901819 0.00876984 -1.48636e-05 0.00890349 1.56985e-07 272.352 
-0.89 -0.49 -1.51438 0.227491 0.00901956 0.00874205 -2.6086e-05 0.00888236 1.56793e-07 272.039 
-0.97 -0.47 -0.44385 0.316141 0.00901751 0.00874444 -3.26767e-05 0.00889355 1.56792e-07 272.384 
-0.87 -0.49 -1.68557 -0.00615821 0.00903766 0.00876081 -1.68085e-05 0.00889977 1.57049e-07 272.129 
-0.95 -0.47 -0.715225 0.31722 0.00902464 0.00874856 -3.29283e-05 0.00889372 1.56852e-07 272.285 
-0.85 -0.49 -1.86129 0.150918 0.00904122 0.008754 -9.51766e-06 0.00889949 1.569e-07 272.379 
-0.93 -0.47 -0.961877 0.327011 0.00902577 0.00874401 -3.53425e-05 0.00889126 1.56833e-07 272.243 
-0.83 -0.49 -1.93585 -0.0314401 0.00904849 0.00876528 -1.42311e-06 0.00891202 1.57143e-07 272.341 
-0.91 -0.47 -1.27002 0.595923 0.00903781 0.00873326 -3.27215e-05 0.00889031 1.56928e-07 272.049 
-0.99 -0.45 -0.120528 0.905061 0.00904806 0.00877194 -2.65409e-05 0.00891922 1.57204e-07 272.453 
-0.81 -0.49 -2.12442 0.257855 0.00905878 0.00876956 1.3617e-05 0.0089202 1.5731e-07 272.301 
-0.89 -0.47 -1.58877 0.40074 0.00903932 0.00873809 -3.1681e-05 0.00888615 1.56921e-07 271.934 
-0.97 -0.45 -0.408231 0.622645 0.00904957 0.00875801 -3.23931e-05 0.00891277 1.5718e-07 272.299 
-0.79 -0.49 -2.44154 0.0655851 0.00906786 0.00877762 1.02004e-05 0.00892928 1.57448e-07 272.339 
-0.87 -0.47 -1.87083 0.245266 0.00904216 0.00874846 -2.72946e-05 0.00890444 1.57151e-07 272.094 
-0.95 -0.45 -0.795947 0.685162 0.00905063 0.00874559 -3.67896e-05 0.00890534 1.56989e-07 272.402 
-0.77 -0.49 -2.48616 -0.0234198 0.00907006 0.00879006 2.22578e-05 0.00894041 1.57579e-07 272.452 
-0.85 -0.47 -2.00972 0.309091 0.00905164 0.00875021 -1.57581e-05 0.00891115 1.5711e-07 272.371 
-0.93 -0.45 -1.18704 0.535093 0.00906011 0.00874032 -4.35363e-05 0.00890451 1.57113e-07 272.162 
-0.83 -0.47 -2.38908 0.176699 0.00906075 0.00875533 -1.09444e-05 0.00891708 1.57197e-07 272.4 
-0.91 -0.45 -1.31963 0.767841 0.00905872 0.00873649 -3.60301e-05 0.00889783 1.57125e-07 271.937 
-0.99 -0.43 -0.186798 1.15151 0.00906433 0.0087675 -3.43766e-05 0.00893213 1.57636e-07 272.101 
-0.81 -0.47 -2.6176 0.522664 0.00907239 0.00876058 -3.77316e-06 0.00892905 1.57393e-07 272.427 
-0.89 -0.45 -1.68905 0.800676 0.00907069 0.00873013 -3.79276e-05 0.00890022 1.57114e-07 272.029 
-0.97 -0.43 -0.472613 0.961854 0.00908007 0.00876882 -3.63719e-05 0.00893332 1.57535e-07 272.312 
-0.79 -0.47 -2.94016 0.368359 0.00908526 0.00877084 7.28983e-06 0.00894293 1.57684e-07 272.347 
-0.87 -0.45 -2.07334 0.565653 0.00907649 0.00874354 -2.57293e-05 0.00891157 1.57206e-07 272.218 
-0.95 -0.43 -0.719035 0.92248 0.00908407 0.00874966 -4.47771e-05 0.00892015 1.5743e-07 272.091 
-0.77 -0.47 -3.27692 0.0994059 0.00909557 0.00878278 1.04677e-05 0.00894956 1.57886e-07 272.2 
-0.85 -0.45 -2.386 0.452623 0.0090831 0.00874181 -2.40834e-05 0.00891953 1.57308e-07 272.284 
-0.93 -0.43 -0.902547 0.95508 0.00908439 0.00873872 -3.85169e-05 0.0089151 1.57282e-07 272.193 
-0.75 -0.47 -3.30653 0.334425 0.00910328 0.00879427 1.55215e-05 0.00895306 1.5774e-07 272.558 
-0.83 -0.45 -2.5931 0.539643 0.0090926 0.00875487 -2.22686e-05 0.00893145 1.57561e-07 272.21 
-0.91 -0.43 -1.47183 1.07867 0.00908915 0.00873793 -4.39832e-05 0.00891422 1.57274e-07 272.18 
-0.99 -0.41 -0.182313 1.50489 0.00908085 0.00876718 -4.95347e-05 0.00893742 1.57726e-07 272.107 
-0.81 -0.45 -2.89017 0.848786 0.00909402 0.00874354 -1.41346e-05 0.00892988 1.57536e-07 272.206 
-0.89 -0.43 -1.60183 1.09769 0.00908552 0.00872774 -4.34568e-05 0.00891023 1.57305e-07 272.005 
-0.97 -0.41 -0.397087 1.13331 0.00908952 0.008768 -4.92565e-05 0.00893542 1.57577e-07 272.302 
-0.79 -0.45 -3.01492 0.557288 0.00910388 0.0087636 -7.11411e-07 0.00894554 1.57761e-07 272.294 
-0.87 -0.43 -1.91447 0.876449 0.00909232 0.00873197 -4.15533e-05 0.00891986 1.57379e-07 272.172 
-0.95 -0.41 -0.63764 1.24587 0.00910017 0.00875716 -4.4841e-05 0.00893977 1.57596e-07 272.402 
-0.77 -0.45 -3.41176 0.470826 0.00911006 0.00877879 5.03547e-06 0.00895153 1.57777e-07 272.448 
-0.85 -0.43 -2.24891 0.838786 0.00910801 0.00874166 -3.1402e-05 0.00893201 1.57603e-07 272.153 
-0.93 -0.41 -1.26577 1.4254 0.00909919 0.00872836 -4.48931e-05 0.00892351 1.57453e-07 272.155 
-0.75 -0.45 -3.71526 0.459168 0.00910937 0.00878412 1.14031e-05 0.00895346 1.57878e-07 272.332 
-0.83 -0.43 -2.66425 0.807235 0.00910858 0.00874693 -1.98172e-05 0.00893427 1.57573e-07 272.274 
-0.91 -0.41 -1.42534 1.35465 0.00910452 0.00874088 -4.12686e-05 0.00892924 1.57648e-07 271.992 
-0.99 -0.39 -0.127999 1.75937 0.00908331 0.00877027 -5.22904e-05 0.00893827 1.5787e-07 271.885 
-0.81 -0.43 -3.01516 1.04612 0.00911345 0.00873714 -1.97401e-05 0.00893754 1.57695e-07 272.163 
-0.89 -0.41 -1.73776 1.34777 0.00910562 0.008733 -4.65671e-05 0.00892734 1.57451e-07 272.275 
-0.97 -0.39 -0.519915 1.37192 0.00909574 0.0087709 -5.51607e-05 0.00893985 1.57781e-07 272.087 
-0.79 -0.43 -3.384 0.888825 0.00912073 0.00875309 -9.50138e-06 0.00895008 1.57907e-07 272.179 
-0.87 -0.41 -2.09441 1.27064 0.00910727 0.00872596 -4.28199e-05 0.0089305 1.57452e-07 272.369 
-0.95 -0.39 -0.84425 1.61277 0.00909458 0.00874722 -5.01884e-05 0.00892638 1.57467e-07 272.217 
-0.77 -0.43 -3.64729 0.763686 0.00912852 0.00877169 2.31265e-06 0.00896031 1.58052e-07 272.242 
-0.85 -0.41 -2.64606 1.15583 0.00910466 0.00873678 -3.97896e-05 0.0089322 1.57664e-07 272.054 
-0.93 -0.39 -0.794003 1.68515 0.00910495 0.00873233 -4.59472e-05 0.00892616 1.57499e-07 272.156 
-0.83 -0.41 -2.77563 1.18611 0.00911597 0.00873457 -3.03512e-05 0.00892991 1.57648e-07 272.013 
-0.91 -0.39 -1.25915 1.76422 0.00911131 0.00873967 -5.02239e-05 0.00893481 1.57651e-07 272.156 
-0.99 -0.37 0.0524829 1.98232 0.00908714 0.00878423 -6.24703e-05 0.0089465 1.58008e-07 271.897 
-0.81 -0.41 -3.00972 1.36144 0.00912235 0.00873341 -2.09896e-05 0.00893598 1.57764e-07 271.997 
-0.89 -0.39 -1.59422 1.59183 0.00911648 0.00873741 -4.80977e-05 0.00894009 1.57691e-07 272.247 
-0.97 -0.37 -0.43285 1.96895 0.0090937 0.00875809 -6.32327e-05 0.00893721 1.5776e-07 272.041 
-0.79 -0.41 -3.32068 1.13646 0.00913411 0.00874683 -2.04222e-05 0.0089522 1.57943e-07 272.182 
-0.87 -0.39 -1.93761 1.66789 0.00911751 0.00871602 -4.65806e-05 0.00893024 1.57636e-07 272.043 
-0.95 -0.37 -0.858586 1.74251 0.00910712 0.00874391 -5.53667e-05 0.00893497 1.57765e-07 271.965 
-0.77 -0.41 -3.69104 1.18742 0.00914382 0.00876972 -1.6126e-05 0.00897054 1.58291e-07 272.141 
-0.85 -0.39 -2.25487 1.57453 0.00912867 0.00873739 -4.1539e-05 0.00894474 1.5798e-07 271.892 
-0.93 -0.37 -1.25585 1.86907 0.00911302 0.00873497 -5.90103e-05 0.00893438 1.57733e-07 272.002 
-0.75 -0.41 -3.97674 0.990612 0.00915708 0.00877841 -9.29388e-06 0.00897976 1.58378e-07 272.271 
-0.83 -0.39 -2.69144 1.48692 0.00912676 0.00872239 -3.94635e-05 0.00893138 1.57701e-07 271.966 
-0.91 -0.37 -1.36684 1.98769 0.00912471 0.00873393 -5.90861e-05 0.00893853 1.57665e-07 272.246 
-0.99 -0.35 -0.215259 2.16259 0.00910279 0.00878339 -7.67331e-05 0.00895361 1.58236e-07 271.721 
-0.81 -0.39 -2.97735 1.50521 0.00913695 0.00873322 -3.6141e-05 0.00894435 1.57735e-07 272.302 
-0.89 -0.37 -1.64247 1.94811 0.00913125 0.00873365 -5.09929e-05 0.00894105 1.57907e-07 271.905 
-0.97 -0.35 -0.392183 2.41524 0.00910897 0.00875066 -6.87333e-05 0.00894387 1.57891e-07 272.019 
-0.79 -0.39 -3.26102 1.5992 0.00914265 0.00873716 -2.69624e-05 0.00895123 1.57996e-07 272.061 
-0.87 -0.37 -2.10421 2.14756 0.00913208 0.00871717 -4.94405e-05 0.00893564 1.57657e-07 272.172 
-0.95 -0.35 -0.750668 2.0796 0.0091163 0.008738 -6.70958e-05 0.00893615 1.57778e-07 271.978 
-0.77 -0.39 -3.76655 1.53588 0.00915097 0.00876996 -2.17868e-05 0.008973 1.58338e-07 272.135 
-0.85 -0.37 -2.51823 1.97828 0.00913238 0.00872947 -5.11986e-05 0.00893885 1.57849e-07 271.939 
-0.93 -0.35 -1.15247 2.2033 0.00912377 0.00873702 -6.49221e-05 0.00894001 1.57828e-07 272.01 
-0.83 -0.37 -3.0178 1.80153 0.00913929 0.00871892 -4.17984e-05 0.00893432 1.5777e-07 271.937 
-0.91 -0.35 -1.49282 2.29978 0.0091184 0.00873222 -5.66534e-05 0.00893019 1.57625e-07 272.061 
-0.81 -0.37 -3.31076 1.70559 0.00914547 0.00872718 -3.59001e-05 0.00894966 1.57951e-07 272.091 
-0.89 -0.35 -1.92829 2.4369 0.00911924 0.0087261 -5.55647e-05 0.00892789 1.57613e-07 272.011 
-0.79 -0.37 -3.69257 1.9934 0.00914761 0.00873466 -3.26152e-05 0.00896048 1.58209e-07 271.975 
-0.87 -0.35 -2.30225 2.36122 0.00913047 0.00871808 -5.61755e-05 0.00893417 1.57683e-07 272.082 
-0.77 -0.37 -3.85365 2.03444 0.0091534 0.00876375 -2.82391e-05 0.00896999 1.58198e-07 272.283 
-0.85 -0.35 -2.6619 2.50789 0.00914049 0.00872123 -5.08942e-05 0.00893805 1.57831e-07 271.945 
-0.83 -0.35 -3.01392 2.13057 0.00914283 0.00871665 -4.67466e-05 0.00893811 1.57906e-07 271.817 
-0.81 -0.35 -3.44445 2.1671 0.00914726 0.00872428 -4.74827e-05 0.00894978 1.57932e-07 272.127 
-0.79 -0.35 -3.747 2.22201 0.00916381 0.00873231 -4.29011e-05 0.00895947 1.58301e-07 271.788 
-0.77 -0.35 -3.91376 2.26037 0.00917563 0.00875256 -3.54163e-05 0.00897447 1.5835e-07 272.157 
-0.75 -0.35 -4.18473 2.22067 0.00918496 0.00877319 -2.99593e-05 0.00898868 1.58635e-07 272.098 
-0.75 -0.49 -2.73576 0.199092 0.00907866 0.00879292 2.31053e-05 0.00893734 1.57587e-07 272.344 
-0.75 -0.43 -3.87528 0.723103 0.00914151 0.00878367 -2.6118e-06 0.00897273 1.58155e-07 272.441 
-0.75 -0.39 -4.42826 1.38298 0.00915227 0.00877349 -2.08018e-05 0.00897624 1.58351e-07 272.209 
-0.75 -0.37 -4.12842 1.82195 0.00916069 0.00877225 -1.95713e-05 0.00897549 1.58374e-07 272.147 
-0.77 -0.33 -3.87202 2.50729 0.00916433 0.00874587 -4.9781e-05 0.00896346 1.58402e-07 271.735 
-0.73 -0.49 -3.02478 0.16697 0.00908626 0.00881336 2.6053e-05 0.0089572 1.57923e-07 272.369 
-0.73 -0.47 -3.31186 0.315356 0.00910852 0.00880173 2.41604e-05 0.00896761 1.5811e-07 272.363 
-0.73 -0.45 -3.91508 0.40773 0.00912431 0.00880108 1.11548e-05 0.00897132 1.58192e-07 272.334 
-0.73 -0.43 -4.2824 0.84742 0.0091471 0.00880002 5.71931e-07 0.00898339 1.58367e-07 272.399 
-0.73 -0.41 -4.39814 1.14255 0.00916686 0.0087993 -7.33669e-06 0.00899127 1.58566e-07 272.296 
-0.73 -0.39 -4.46499 1.48626 0.00915978 0.00879134 -9.45085e-06 0.00898046 1.58482e-07 272.112 
-0.73 -0.37 -4.67568 1.78597 0.00916478 0.00877663 -2.55808e-05 0.0089765 1.58494e-07 271.972 
-0.73 -0.35 -4.51324 1.9919 0.00918579 0.00877934 -2.55441e-05 0.00898809 1.58636e-07 272.08 
-0.81 -0.29 -3.28356 3.33328 0.00915864 0.00871779 -6.5596e-05 0.00894537 1.58035e-07 271.816 
-0.89 -0.27 -1.90836 3.843 0.00912678 0.00869828 -8.72874e-05 0.00893025 1.57693e-07 271.945 
-0.97 -0.25 -0.489678 3.76976 0.00909162 0.00872117 -0.000110824 0.00891741 1.57675e-07 271.586 
-0.83 -0.29 -2.92756 3.44449 0.00914851 0.00871899 -6.69166e-05 0.00894377 1.57808e-07 272.158 
-0.91 -0.27 -1.43634 3.89512 0.00912689 0.00870861 -8.91727e-05 0.00893118 1.57727e-07 271.915 
-0.99 -0.25 -0.240669 3.75156 0.00909222 0.00875975 -0.000117813 0.00893934 1.58092e-07 271.535 
-0.79 -0.29 -3.59146 3.22634 0.00916856 0.00872555 -6.2871e-05 0.00895348 1.58187e-07 271.8 
-0.87 -0.27 -2.38988 3.98386 0.00913389 0.00870545 -7.46009e-05 0.00893973 1.57844e-07 271.973 
-0.95 -0.25 -0.749358 3.77526 0.00910362 0.00872051 -0.000105088 0.00892772 1.57821e-07 271.647 
-0.77 -0.29 -3.95021 3.27223 0.0091799 0.00874009 -5.53637e-05 0.00896874 1.58398e-07 271.902 
-0.85 -0.27 -2.70782 3.74957 0.00914834 0.00871178 -7.37497e-05 0.00894359 1.57946e-07 271.915 
-0.93 -0.25 -1.14584 4.10001 0.00910128 0.00870476 -0.000108067 0.00891862 1.57569e-07 271.805 
-0.75 -0.29 -4.49218 3.19774 0.00918437 0.00875505 -5.64451e-05 0.0089819 1.58578e-07 271.992 
-0.83 -0.27 -3.11762 3.63145 0.009159 0.00872429 -7.24065e-05 0.00895379 1.58045e-07 272.054 
-0.91 -0.25 -1.53949 4.23752 0.00911249 0.00869806 -0.000100113 0.00891873 1.5756e-07 271.824 
-0.99 -0.23 -0.100865 4.04719 0.00906286 0.00874946 -0.000125819 0.00892097 1.57715e-07 271.624 
-0.81 -0.27 -3.49068 3.75714 0.00916297 0.00871596 -7.84724e-05 0.00894756 1.58079e-07 271.807 
-0.89 -0.25 -1.93405 4.22075 0.00912378 0.00869247 -8.68267e-05 0.00892843 1.57639e-07 271.984 
-0.97 -0.23 -0.41815 4.02878 0.00908107 0.00872844 -0.00011977 0.00891757 1.57682e-07 271.578 
-0.79 -0.27 -4.00294 3.59673 0.0091734 0.00871704 -7.00572e-05 0.00894795 1.58262e-07 271.504 
-0.87 -0.25 -2.1573 4.3077 0.00913744 0.00870216 -8.9391e-05 0.00894008 1.57988e-07 271.736 
-0.95 -0.23 -0.884036 4.25662 0.00908923 0.00870948 -0.000120376 0.00891186 1.57515e-07 271.692 
-0.77 -0.27 -4.34412 3.63955 0.00917635 0.00873717 -6.23767e-05 0.00896721 1.58473e-07 271.726 
-0.85 -0.25 -2.57017 4.18995 0.00915032 0.00871215 -8.96727e-05 0.00894664 1.5794e-07 272.019 
-0.93 -0.23 -1.25185 4.43771 0.00910519 0.0087044 -0.000111948 0.00891896 1.57486e-07 271.959 
-0.83 -0.25 -3.09208 4.11339 0.00915881 0.00871016 -8.22938e-05 0.00893911 1.5807e-07 271.565 
-0.91 -0.23 -1.54461 4.49391 0.00910825 0.00868429 -0.000103633 0.00891912 1.57442e-07 272.039 
-0.99 -0.21 0.000584712 4.2299 0.00908982 0.00874514 -0.000132869 0.00893174 1.57892e-07 271.648 
-0.81 -0.25 -3.40771 4.11348 0.00916508 0.00872693 -7.52879e-05 0.00895452 1.58191e-07 271.825 
-0.89 -0.23 -1.90627 4.77702 0.00912038 0.00869503 -0.000103474 0.00892463 1.57589e-07 271.954 
-0.97 -0.21 -0.267761 4.42365 0.0090987 0.00871439 -0.00013048 0.0089177 1.57634e-07 271.665 
-0.79 -0.25 -3.84656 4.16862 0.00915555 0.00870703 -7.76568e-05 0.00894095 1.58137e-07 271.507 
-0.87 -0.23 -2.46331 4.53479 0.00913273 0.00869814 -0.000104665 0.00892771 1.57783e-07 271.713 
-0.95 -0.21 -0.626427 4.63878 0.00910468 0.00871246 -0.000124164 0.00892197 1.57582e-07 271.884 
-0.77 -0.25 -4.28167 3.83903 0.00916464 0.00873317 -7.64311e-05 0.0089537 1.5825e-07 271.7 
-0.85 -0.23 -2.69071 4.66914 0.00913643 0.00870753 -9.34114e-05 0.00893181 1.57837e-07 271.745 
-0.93 -0.21 -1.16352 4.85505 0.00910427 0.00869267 -0.000121002 0.00891318 1.57597e-07 271.59 
-0.83 -0.23 -3.06469 4.52707 0.00913295 0.00869789 -8.60122e-05 0.00892545 1.57806e-07 271.605 
-0.91 -0.21 -1.49574 4.76161 0.00911389 0.00868142 -0.000114636 0.00891715 1.57603e-07 271.701 
-0.99 -0.19 -0.213739 4.4507 0.00907747 0.00873524 -0.000148499 0.00892051 1.5764e-07 271.74 
-0.81 -0.23 -3.52433 4.36835 0.00914085 0.00871839 -8.1104e-05 0.00894252 1.57992e-07 271.803 
-0.89 -0.21 -1.85702 5.24066 0.00912547 0.00869836 -0.000112956 0.00893294 1.57754e-07 271.921 
-0.97 -0.19 -0.541639 4.77685 0.00908479 0.00870511 -0.000137174 0.00890665 1.57472e-07 271.608 
-0.79 -0.23 -3.74321 4.56511 0.0091585 0.00871814 -7.87633e-05 0.00895088 1.58177e-07 271.74 
-0.87 -0.21 -2.19192 5.02011 0.0091273 0.00868322 -0.00010871 0.00892191 1.57781e-07 271.54 
-0.95 -0.19 -0.848489 4.97107 0.00909686 0.00871093 -0.000131263 0.00891317 1.57561e-07 271.653 
-0.77 -0.23 -4.10689 4.29026 0.0091621 0.0087288 -8.77383e-05 0.00895372 1.58223e-07 271.746 
-0.85 -0.21 -2.79139 4.96007 0.00913377 0.00869708 -9.62893e-05 0.0089308 1.57819e-07 271.746 
-0.93 -0.19 -0.975326 5.26737 0.0091065 0.00868713 -0.000124173 0.00891365 1.57601e-07 271.597 
-0.75 -0.23 -4.57902 4.00667 0.00917287 0.00874335 -8.31815e-05 0.00896656 1.5843e-07 271.781 
-0.83 -0.21 -3.13311 4.8072 0.00915002 0.00870076 -9.1691e-05 0.0089379 1.57828e-07 271.946 
-0.91 -0.19 -1.42639 5.24043 0.00910795 0.00867693 -0.000122709 0.00890788 1.5746e-07 271.666 
-0.81 -0.21 -3.4011 4.75338 0.0091531 0.00871349 -8.83076e-05 0.00894873 1.58125e-07 271.764 
-0.89 -0.19 -1.92501 5.56044 0.0091147 0.00868984 -0.000116028 0.0089208 1.57594e-07 271.829 
-0.79 -0.21 -3.7472 4.91621 0.00914981 0.00871677 -8.8894e-05 0.00894768 1.58218e-07 271.572 
-0.87 -0.19 -2.37143 5.40457 0.00911567 0.00868196 -0.000108571 0.00891722 1.57664e-07 271.598 
-0.77 -0.21 -4.17321 4.75005 0.00916007 0.00873457 -9.2205e-05 0.00895792 1.58336e-07 271.68 
-0.85 -0.19 -2.62042 5.40588 0.00912135 0.00868582 -0.000109513 0.00892027 1.57676e-07 271.671 
-0.75 -0.21 -4.63218 4.41382 0.00916263 0.0087387 -9.4769e-05 0.00896277 1.58403e-07 271.712 
-0.83 -0.19 -2.95342 5.12857 0.00912291 0.0086996 -0.000105254 0.00892826 1.57777e-07 271.74 
-0.81 -0.19 -3.27685 5.14047 0.00914215 0.0087006 -9.79878e-05 0.00893597 1.57967e-07 271.647 
-0.79 -0.19 -3.83698 5.29921 0.00915997 0.00872977 -9.59049e-05 0.00896078 1.58278e-07 271.866 
-0.77 -0.19 -4.17305 5.20751 0.00916962 0.00873391 -0.000101406 0.00896418 1.58412e-07 271.739 
-0.99 -0.33 -0.126148 2.42924 0.00910087 0.00877787 -8.59702e-05 0.00894883 1.58038e-07 271.916 
-0.97 -0.33 -0.440795 2.56299 0.0091139 0.00874896 -8.03796e-05 0.00894273 1.57915e-07 271.942 
-0.91 -0.33 -1.59983 2.77412 0.00914355 0.00872682 -6.6096e-05 0.00893992 1.57832e-07 272.001 
-0.99 -0.31 -0.211341 2.80507 0.00908844 0.00876761 -9.53627e-05 0.0089388 1.57898e-07 271.853 
-0.97 -0.31 -0.45212 2.8527 0.00909627 0.00874578 -8.82143e-05 0.00893223 1.5795e-07 271.563 
-0.87 -0.33 -2.27171 2.81654 0.00915053 0.00872311 -5.97943e-05 0.00894687 1.57926e-07 272.05 
-0.95 -0.31 -0.927702 3.02697 0.00910462 0.00872355 -8.38755e-05 0.00892727 1.57606e-07 272.006 
-0.85 -0.33 -2.45376 2.71127 0.00914382 0.00871322 -5.3649e-05 0.00893939 1.57686e-07 272.237 
-0.93 -0.31 -1.26487 2.96383 0.00912117 0.00873097 -8.36531e-05 0.00894075 1.5778e-07 272.116 
-0.91 -0.31 -1.52053 3.03526 0.00913404 0.00871809 -6.92327e-05 0.00894398 1.57747e-07 272.269 
-0.99 -0.29 -0.110819 3.09995 0.00908125 0.00876728 -0.000102323 0.0089376 1.57914e-07 271.788 
-0.81 -0.33 -3.47305 2.54533 0.00915712 0.00872547 -4.92152e-05 0.00895258 1.58133e-07 271.867 
-0.89 -0.31 -1.77519 3.10508 0.00913611 0.00871472 -6.20676e-05 0.00893965 1.57774e-07 272.091 
-0.97 -0.29 -0.4494 3.20327 0.00909039 0.00873399 -9.65093e-05 0.00892393 1.57626e-07 271.868 
-0.87 -0.31 -2.23691 3.11415 0.00914131 0.00871859 -6.22936e-05 0.00893759 1.5787e-07 271.864 
-0.95 -0.29 -0.716378 3.36325 0.00910237 0.00872253 -9.76996e-05 0.00892569 1.57567e-07 272.024 
-0.85 -0.31 -2.58289 2.89856 0.00914994 0.00871152 -5.7824e-05 0.00894263 1.57939e-07 271.899 
-0.93 -0.29 -1.07229 3.22651 0.00910631 0.00872196 -8.67322e-05 0.0089234 1.57552e-07 271.98 
-0.83 -0.31 -2.80388 3.12708 0.00915643 0.00871967 -5.59523e-05 0.0089507 1.58021e-07 272.002 
-0.91 -0.29 -1.31035 3.45373 0.0091054 0.00870629 -8.10032e-05 0.00891611 1.57452e-07 271.931 
-0.99 -0.27 -0.0871135 3.39118 0.00909086 0.00876031 -0.00011038 0.008941 1.58085e-07 271.598 
-0.81 -0.31 -3.13462 3.00162 0.0091577 0.00871843 -5.68874e-05 0.00895258 1.58028e-07 272.048 
-0.89 -0.29 -1.70863 3.46087 0.00912185 0.00871109 -7.57662e-05 0.0089292 1.57624e-07 272.031 
-0.97 -0.27 -0.499236 3.48813 0.00909752 0.0087329 -0.000106382 0.00893009 1.57713e-07 271.906 
-0.79 -0.31 -3.64742 2.70257 0.009163 0.00872943 -5.4915e-05 0.00895407 1.58231e-07 271.743 
-0.87 -0.29 -2.09587 3.53095 0.00913371 0.00871323 -6.29326e-05 0.00893723 1.57835e-07 271.913 
-0.95 -0.27 -0.633659 3.65901 0.00909932 0.00871633 -9.95422e-05 0.00892272 1.57535e-07 271.989 
-0.77 -0.31 -4.17869 2.86959 0.00916652 0.00874167 -5.13833e-05 0.00895533 1.58261e-07 271.731 
-0.85 -0.29 -2.64934 3.29664 0.0091388 0.00870926 -6.48267e-05 0.00893187 1.57779e-07 271.846 
-0.93 -0.27 -0.94257 3.51233 0.00911163 0.00871053 -9.4014e-05 0.00891984 1.57377e-07 272.173 
-0.95 -0.33 -0.708894 2.56061 0.00912008 0.00872478 -7.29777e-05 0.00893473 1.57793e-07 271.908 
-0.93 -0.33 -1.08371 2.62388 0.00913156 0.00873777 -6.4836e-05 0.00894246 1.57835e-07 272.073 
-0.89 -0.33 -2.07907 2.69797 0.00915127 0.0087192 -5.98128e-05 0.008942 1.57797e-07 272.124 
-0.83 -0.33 -2.89636 2.7465 0.00914601 0.00871249 -5.43526e-05 0.00894458 1.57936e-07 271.963 
-0.75 -0.31 -4.46351 2.77604 0.00917128 0.0087537 -4.93573e-05 0.00897496 1.58413e-07 272.065 
-0.75 -0.27 -4.55205 3.70127 0.00919083 0.00875367 -6.6286e-05 0.00898061 1.58663e-07 271.807 
-0.75 -0.25 -4.47437 3.82559 0.00917517 0.0087524 -6.86178e-05 0.00896742 1.58423e-07 271.819 
-0.75 -0.19 -4.45852 4.86954 0.00916767 0.00873607 -9.48667e-05 0.00896413 1.58452e-07 271.67 
-0.79 -0.33 -3.6261 2.31164 0.00915542 0.00873002 -5.09823e-05 0.00895514 1.58245e-07 271.753 
-0.75 -0.33 -4.27253 2.48304 0.00917236 0.00876213 -3.82334e-05 0.00897648 1.5855e-07 271.876 
-0.81 -0.17 -3.60517 5.58117 0.00912549 0.00869167 -0.000112125 0.00891971 1.57718e-07 271.581 
-0.79 -0.17 -3.90705 5.7285 0.00913971 0.00873238 -0.000113102 0.00895069 1.5814e-07 271.797 
-0.75 -0.17 -4.55287 5.42196 0.00916468 0.00873616 -0.000103299 0.00895956 1.58227e-07 271.918 
-0.73 -0.31 -4.84242 2.94425 0.0091901 0.00877288 -4.82323e-05 0.00899142 1.58713e-07 272.049 
-0.73 -0.29 -4.75949 3.23864 0.00918398 0.00876718 -5.48942e-05 0.00898864 1.58747e-07 271.907 
-0.73 -0.27 -4.98248 3.35804 0.00919958 0.00877046 -6.56434e-05 0.00899557 1.58858e-07 271.925 
-0.73 -0.25 -4.64303 3.79162 0.00918003 0.00876413 -6.72884e-05 0.00897979 1.58731e-07 271.666 
-0.73 -0.23 -4.86488 4.17516 0.00918523 0.00876818 -7.63535e-05 0.00898556 1.58847e-07 271.641 
-0.73 -0.21 -4.89323 4.38707 0.0091764 0.00876369 -9.36097e-05 0.00898278 1.58667e-07 271.866 
-0.73 -0.19 -4.98667 4.72962 0.00916882 0.00877141 -9.97379e-05 0.00897783 1.58604e-07 271.824 
-0.79 -0.05 -3.36036 7.68311 0.00906376 0.00871758 -0.000152715 0.0089046 1.57487e-07 271.519 
-0.87 -0.03 -2.23605 8.30642 0.00900393 0.00863101 -0.000178832 0.00883792 1.564e-07 271.359 
-0.83 -0.05 -2.75946 7.98686 0.00904232 0.00867689 -0.000152721 0.0088822 1.57083e-07 271.532 
-0.91 -0.03 -1.65071 8.3594 0.0089935 0.00862894 -0.000187969 0.00883207 1.56241e-07 271.456 
-0.81 -0.05 -3.0003 7.67419 0.00905635 0.00869665 -0.000145102 0.00889378 1.57276e-07 271.552 
-0.89 -0.03 -1.90931 8.41579 0.0089968 0.00862799 -0.000178034 0.00883085 1.56297e-07 271.32 
-0.77 -0.05 -3.70079 7.30086 0.00907258 0.00872454 -0.000152983 0.00891426 1.57629e-07 271.569 
-0.85 -0.03 -2.50428 8.17364 0.00900857 0.00864574 -0.000176821 0.00885033 1.56592e-07 271.406 
-0.75 -0.05 -3.94653 7.02087 0.00907913 0.00875348 -0.000159833 0.0089248 1.57768e-07 271.651 
-0.83 -0.03 -2.71974 8.32259 0.00902657 0.00866976 -0.000162493 0.00887017 1.56936e-07 271.418 
-0.81 -0.03 -3.11186 7.96634 0.00903735 0.00869374 -0.000156849 0.00888226 1.57096e-07 271.512 
-0.79 -0.03 -3.21333 8.0478 0.00904834 0.0087185 -0.000157897 0.00889697 1.57401e-07 271.434 
-0.77 -0.03 -3.62139 7.54738 0.00905795 0.00872979 -0.000160237 0.00890392 1.57489e-07 271.495 
-0.95 -0.17 -0.71399 5.26707 0.0090772 0.00869415 -0.000142146 0.0088989 1.57359e-07 271.566 
-0.99 -0.15 -0.161576 4.96737 0.00902995 0.0087073 -0.000173794 0.00888799 1.57196e-07 271.513 
-0.89 -0.17 -2.03283 5.84092 0.00910403 0.00867472 -0.000122977 0.00890594 1.57324e-07 271.842 
-0.97 -0.15 -0.537723 5.46674 0.00905125 0.0087001 -0.000164224 0.00888914 1.57189e-07 271.561 
-0.95 -0.15 -0.910287 5.67876 0.00906482 0.00867931 -0.000151899 0.00888524 1.5713e-07 271.544 
-0.93 -0.15 -1.2855 6.01934 0.00907394 0.00867117 -0.000140524 0.00888825 1.57244e-07 271.44 
-0.83 -0.17 -3.0634 5.57832 0.0091262 0.00870524 -0.000108188 0.00893031 1.57808e-07 271.749 
-0.91 -0.15 -1.489 6.14335 0.00909167 0.0086808 -0.000136861 0.00890435 1.57398e-07 271.665 
-0.99 -0.13 -0.25057 5.39535 0.00904491 0.00870621 -0.000186966 0.00888776 1.57177e-07 271.539 
-0.89 -0.15 -1.74217 6.21463 0.00909276 0.00866355 -0.000129087 0.0088951 1.57254e-07 271.63 
-0.97 -0.13 -0.528695 5.83547 0.00905109 0.00868197 -0.00017347 0.00888249 1.57169e-07 271.392 
-0.87 -0.15 -2.3691 6.07864 0.00909748 0.00868227 -0.000124916 0.00891032 1.5741e-07 271.827 
-0.95 -0.13 -0.964194 6.04302 0.00906208 0.00866833 -0.000163428 0.00888078 1.57149e-07 271.376 
-0.77 -0.17 -4.16765 5.30072 0.0091543 0.00872716 -0.000106469 0.00895654 1.58255e-07 271.777 
-0.85 -0.15 -2.66657 6.23047 0.00910794 0.00867632 -0.000118108 0.00890882 1.57541e-07 271.554 
-0.93 -0.13 -1.14346 6.21296 0.00907981 0.00866983 -0.000157634 0.00889394 1.57222e-07 271.652 
-0.83 -0.15 -3.01352 5.94792 0.00911967 0.00869657 -0.000117026 0.00892277 1.57772e-07 271.581 
-0.91 -0.13 -1.67161 6.47436 0.00908129 0.00866384 -0.000148483 0.00889294 1.57262e-07 271.552 
-0.99 -0.11 -0.0871542 5.68845 0.00904368 0.00869669 -0.000185913 0.00888337 1.56985e-07 271.738 
-0.81 -0.15 -3.40769 6.09226 0.00912896 0.00870788 -0.000118929 0.00893152 1.57876e-07 271.669 
-0.89 -0.13 -1.98078 6.6235 0.00908889 0.00866365 -0.000134788 0.00889271 1.5732e-07 271.444 
-0.97 -0.11 -0.461052 6.22196 0.00903854 0.00867048 -0.000179964 0.00887348 1.5695e-07 271.495 
-0.79 -0.15 -3.86758 5.89162 0.00913097 0.00872163 -0.00012287 0.00894482 1.58132e-07 271.633 
-0.87 -0.13 -2.38172 6.59372 0.00909809 0.00866847 -0.000132644 0.00889966 1.57389e-07 271.537 
-0.95 -0.11 -0.769513 6.36879 0.00904772 0.00866744 -0.000175014 0.00887502 1.57129e-07 271.234 
-0.77 -0.15 -4.15104 5.65472 0.00913482 0.00872384 -0.000114116 0.00894577 1.5822e-07 271.511 
-0.85 -0.13 -2.69366 6.379 0.00911183 0.00867847 -0.000125155 0.00890888 1.57543e-07 271.553 
-0.93 -0.11 -1.28594 6.73093 0.00905581 0.00865758 -0.00016803 0.00887252 1.57106e-07 271.196 
-0.75 -0.15 -4.38703 5.61801 0.00914367 0.00873739 -0.000111798 0.00895455 1.58301e-07 271.639 
-0.83 -0.13 -3.04835 6.43296 0.00912 0.00869299 -0.000130216 0.00891905 1.57533e-07 271.881 
-0.91 -0.11 -1.59424 6.82951 0.00906407 0.0086504 -0.000154154 0.00887786 1.57111e-07 271.351 
-0.99 -0.09 -0.0898153 5.89368 0.00900254 0.00868587 -0.000196985 0.00885786 1.56726e-07 271.405 
-0.81 -0.13 -3.56703 6.47256 0.00911857 0.00870751 -0.000121285 0.00892936 1.57938e-07 271.495 
-0.89 -0.11 -1.92051 6.95839 0.00907742 0.00865856 -0.000144623 0.00888737 1.57359e-07 271.214 
-0.97 -0.09 -0.33629 6.70291 0.00902675 0.00866567 -0.000188952 0.00886728 1.56886e-07 271.417 
-0.79 -0.13 -3.71093 6.28178 0.00912371 0.00871884 -0.000122145 0.00893732 1.57924e-07 271.762 
-0.87 -0.11 -2.22312 6.95963 0.00908641 0.00866494 -0.000140914 0.00889617 1.57419e-07 271.379 
-0.95 -0.09 -0.799753 6.78711 0.00903857 0.0086591 -0.000180472 0.00887282 1.56908e-07 271.549 
-0.77 -0.13 -4.04162 5.97721 0.00912422 0.00871841 -0.000119593 0.00893317 1.57995e-07 271.514 
-0.85 -0.11 -2.69114 6.79625 0.00908894 0.00867592 -0.000136159 0.00889808 1.57433e-07 271.414 
-0.93 -0.09 -1.09331 6.93085 0.00904172 0.00865054 -0.000174119 0.00886944 1.57123e-07 271.074 
-0.83 -0.11 -3.11554 6.95465 0.00909054 0.00868425 -0.000128179 0.00890578 1.57542e-07 271.459 
-0.91 -0.09 -1.34755 7.20037 0.00904155 0.00863571 -0.000161336 0.00886009 1.56905e-07 271.163 
-0.99 -0.07 -0.257323 6.21229 0.00900617 0.00868097 -0.000204105 0.00886087 1.56727e-07 271.496 
-0.81 -0.11 -3.42505 6.6081 0.00910182 0.00870912 -0.000129372 0.00891968 1.57567e-07 271.84 
-0.89 -0.09 -1.85316 7.37303 0.00905177 0.0086528 -0.000158599 0.00887423 1.57155e-07 271.164 
-0.97 -0.07 -0.554731 6.95983 0.00899914 0.00865378 -0.000202547 0.00884751 1.56506e-07 271.469 
-0.79 -0.11 -3.61046 6.58034 0.00910914 0.00871444 -0.000128738 0.00892944 1.57942e-07 271.492 
-0.87 -0.09 -2.14712 7.29868 0.0090685 0.00865991 -0.000150257 0.00888655 1.57342e-07 271.218 
-0.95 -0.07 -0.773826 7.12784 0.00899979 0.00865166 -0.000187472 0.00884786 1.56536e-07 271.427 
-0.77 -0.11 -3.97006 6.22283 0.0091232 0.00871614 -0.000131289 0.00893303 1.57956e-07 271.577 
-0.85 -0.09 -2.51954 7.22981 0.00907735 0.00866781 -0.000143157 0.00888942 1.5728e-07 271.412 
-0.93 -0.07 -1.18931 7.37232 0.00901095 0.00863544 -0.000179557 0.00884936 1.56702e-07 271.186 
-0.75 -0.11 -4.44091 6.04072 0.00913761 0.00875097 -0.00013027 0.00895426 1.58322e-07 271.592 
-0.83 -0.09 -2.80163 7.25772 0.00908632 0.00868032 -0.000139558 0.00890154 1.57398e-07 271.58 
-0.91 -0.07 -1.5785 7.53617 0.00902896 0.00863438 -0.000173954 0.0088554 1.56724e-07 271.333 
-0.99 -0.05 -0.0848669 6.62232 0.00898212 0.00867032 -0.000216564 0.00883959 1.56429e-07 271.36 
-0.81 -0.09 -3.23719 7.04728 0.00909647 0.00871156 -0.000138724 0.00891786 1.5775e-07 271.47 
-0.89 -0.07 -1.90047 7.69346 0.00904198 0.00864773 -0.000172331 0.00886776 1.56969e-07 271.288 
-0.97 -0.05 -0.529276 7.16396 0.00900303 0.00864826 -0.000206154 0.00884811 1.56541e-07 271.427 
-0.79 -0.09 -3.6899 6.81683 0.00909965 0.00871667 -0.000133688 0.00892407 1.57779e-07 271.608 
-0.87 -0.07 -2.29698 7.75969 0.00904443 0.0086445 -0.000157804 0.00886277 1.56768e-07 271.483 
-0.95 -0.05 -0.759844 7.49156 0.00900958 0.00864233 -0.000196685 0.00884496 1.56435e-07 271.514 
-0.77 -0.09 -3.98835 6.6983 0.00909547 0.00871752 -0.000134367 0.00892329 1.57841e-07 271.478 
-0.85 -0.07 -2.5403 7.48772 0.00905204 0.00865966 -0.000149916 0.00887803 1.56985e-07 271.575 
-0.93 -0.05 -1.13373 7.77327 0.00900859 0.00862485 -0.000182074 0.00883987 1.56469e-07 271.299 
-0.75 -0.09 -4.2886 6.51601 0.00909458 0.00874675 -0.000142461 0.00893615 1.58056e-07 271.499 
-0.83 -0.07 -2.94511 7.68717 0.00906082 0.00868541 -0.000144397 0.00888808 1.57077e-07 271.723 
-0.91 -0.05 -1.48482 7.98095 0.00901094 0.00863425 -0.000180337 0.00884417 1.56535e-07 271.316 
-0.99 -0.03 -0.183458 6.9737 0.00895831 0.00866021 -0.000230164 0.00882402 1.56132e-07 271.397 
-0.81 -0.07 -3.18804 7.5574 0.00905896 0.0086998 -0.000147548 0.00889638 1.57296e-07 271.598 
-0.89 -0.05 -1.86076 8.03436 0.00900977 0.00863444 -0.000176766 0.00884516 1.56583e-07 271.264 