ITEM: TIMESTEP
918000
ITEM: NUMBER OF CELLS
5000
ITEM: BOX BOUNDS ss ss pp
-1 1
-0.5 0.5
-0.5 0.5
ITEM: CELLS xc yc f_U[*] f_V[*] f_Tau[1] f_Tau[2] f_Tau[3] f_Press[*] f_Mrho[*] f_Ttra[*] 
-0.99 -0.49 -0.215559 0.339483 0.00898968 0.00875525 -3.41248e-05 0.00888208 1.56667e-07 272.249 
-0.97 -0.49 -0.679513 0.0853264 0.00898619 0.00875816 -3.37539e-05 0.00887986 1.5666e-07 272.194 
-0.95 -0.49 -0.771341 0.0188751 0.00898846 0.00875003 -3.35841e-05 0.00887668 1.56659e-07 272.098 
-0.93 -0.49 -0.962258 0.177761 0.00899697 0.00875661 -2.64415e-05 0.00888393 1.56792e-07 272.089 
-0.91 -0.49 -1.2854 0.0396343 0.00900607 0.00872913 -1.98916e-05 0.00886838 1.56727e-07 271.726 
-0.99 -0.47 -0.184084 0.61453 0.00901864 0.00877843 -1.99274e-05 0.00890951 1.57139e-07 272.27 
-0.89 -0.49 -1.63006 0.243441 0.00902365 0.00874154 -2.45196e-05 0.00888637 1.56803e-07 272.145 
-0.97 -0.47 -0.300415 0.425122 0.0090153 0.00875328 -3.95354e-05 0.00889697 1.56828e-07 272.426 
-0.87 -0.49 -1.8688 0.0478296 0.00903847 0.0087651 -1.22698e-05 0.00889926 1.57032e-07 272.142 
-0.95 -0.47 -0.716588 0.386656 0.00903143 0.00875556 -3.81389e-05 0.00890278 1.56951e-07 272.391 
-0.85 -0.49 -2.04666 0.190536 0.0090438 0.00874918 -5.03088e-06 0.00889299 1.56757e-07 272.428 
-0.93 -0.47 -1.00402 0.298178 0.00903247 0.00874552 -3.48114e-05 0.00889092 1.56813e-07 272.266 
-0.83 -0.49 -2.09173 -0.136022 0.00905474 0.00876476 2.50184e-06 0.00891308 1.57106e-07 272.436 
-0.91 -0.47 -1.26967 0.698132 0.00903909 0.00873368 -3.02538e-05 0.00889136 1.56906e-07 272.119 
-0.99 -0.45 -0.172787 0.951583 0.00905723 0.00878182 -3.39658e-05 0.00892906 1.57418e-07 272.384 
-0.81 -0.49 -2.21055 0.216478 0.00905823 0.00876787 8.33837e-06 0.00892093 1.57362e-07 272.232 
-0.89 -0.47 -1.7514 0.472226 0.00903951 0.008739 -3.33003e-05 0.00888962 1.56909e-07 272.061 
-0.97 -0.45 -0.438885 0.658195 0.00906579 0.00876983 -4.04433e-05 0.00892623 1.5729e-07 272.519 
-0.79 -0.49 -2.47199 0.0497946 0.00906476 0.0087785 1.97576e-05 0.00892998 1.57427e-07 272.397 
-0.87 -0.47 -1.97701 0.196308 0.00904425 0.00874798 -2.33478e-05 0.0089059 1.56902e-07 272.571 
-0.95 -0.45 -0.67958 0.772085 0.00905361 0.00874666 -4.16373e-05 0.0089057 1.56903e-07 272.564 
-0.77 -0.49 -2.5099 0.0350253 0.00907192 0.00880076 3.39169e-05 0.00894807 1.57687e-07 272.498 
-0.85 -0.47 -2.07409 0.221662 0.00905571 0.00875196 -1.3417e-05 0.00890721 1.56973e-07 272.488 
-0.93 -0.45 -1.10942 0.578331 0.00906344 0.00873577 -4.24639e-05 0.00890519 1.57142e-07 272.132 
-0.83 -0.47 -2.39295 0.14982 0.0090594 0.0087514 -8.49995e-06 0.00891472 1.57075e-07 272.541 
-0.91 -0.45 -1.32031 0.909687 0.00906606 0.00874214 -3.30089e-05 0.00890434 1.57164e-07 272.07 
-0.99 -0.43 -0.133147 1.25081 0.00908224 0.00878352 -4.02214e-05 0.00894335 1.57855e-07 272.065 
-0.81 -0.47 -2.54679 0.428117 0.00907105 0.00876255 7.8215e-07 0.00893006 1.57452e-07 272.356 
-0.89 -0.45 -1.64485 0.783652 0.00907633 0.0087302 -3.67551e-05 0.0089 1.57144e-07 271.97 
-0.97 -0.43 -0.430482 0.900845 0.00908323 0.00877062 -3.66707e-05 0.00893665 1.57531e-07 272.42 
-0.79 -0.47 -2.87722 0.292478 0.00908159 0.00876046 1.36358e-05 0.00893673 1.57641e-07 272.232 
-0.87 -0.45 -1.98469 0.626669 0.00907988 0.00873908 -2.27893e-05 0.00891083 1.57045e-07 272.474 
-0.95 -0.43 -0.670491 0.902728 0.00908718 0.00874971 -4.36193e-05 0.00892313 1.57439e-07 272.168 
-0.77 -0.47 -3.18366 0.17444 0.00909674 0.00879647 1.69978e-05 0.0089533 1.57966e-07 272.176 
-0.85 -0.45 -2.36363 0.375567 0.00908544 0.00874048 -1.7842e-05 0.00891789 1.57189e-07 272.44 
-0.93 -0.43 -0.93197 1.12729 0.00908992 0.00874032 -4.25045e-05 0.0089196 1.57349e-07 272.214 
-0.75 -0.47 -3.34045 0.331891 0.00910406 0.00881531 2.15342e-05 0.00896736 1.57877e-07 272.756 
-0.83 -0.45 -2.62732 0.396465 0.0090943 0.00875546 -1.57098e-05 0.0089329 1.57557e-07 272.261 
-0.91 -0.43 -1.46353 1.00471 0.00909028 0.00873682 -4.40411e-05 0.00891157 1.57217e-07 272.198 
-0.99 -0.41 -0.220352 1.58125 0.00908323 0.00877544 -4.49857e-05 0.00893729 1.57793e-07 271.986 
-0.81 -0.45 -2.85267 0.747095 0.00909748 0.0087432 -1.14853e-05 0.00893125 1.57508e-07 272.295 
-0.89 -0.43 -1.47345 1.18011 0.00908195 0.00871977 -3.55285e-05 0.00890394 1.5715e-07 272.081 
-0.97 -0.41 -0.416988 1.0507 0.00909959 0.0087752 -4.96901e-05 0.00894187 1.57559e-07 272.53 
-0.79 -0.45 -3.09478 0.542921 0.00910617 0.00875578 2.42394e-06 0.00893637 1.57729e-07 272.07 
-0.87 -0.43 -1.84213 0.861724 0.00908692 0.00873687 -3.52975e-05 0.008919 1.57305e-07 272.273 
-0.95 -0.41 -0.624544 1.31891 0.00910631 0.0087584 -4.10347e-05 0.00894015 1.57683e-07 272.264 
-0.77 -0.45 -3.45737 0.509498 0.00911542 0.00878792 8.40131e-06 0.00895535 1.57881e-07 272.385 
-0.85 -0.43 -2.05195 0.779891 0.0090989 0.00873475 -2.58333e-05 0.0089232 1.57437e-07 272.173 
-0.93 -0.41 -1.17857 1.58878 0.00909468 0.0087276 -4.21619e-05 0.00891998 1.57423e-07 272.098 
-0.75 -0.45 -3.69509 0.478242 0.00911882 0.00880843 1.56982e-05 0.0089657 1.5816e-07 272.218 
-0.83 -0.43 -2.44238 0.799756 0.00910288 0.00875131 -1.68234e-05 0.00893408 1.57543e-07 272.321 
-0.91 -0.41 -1.35273 1.21117 0.00909779 0.00873451 -3.59872e-05 0.00892397 1.57618e-07 271.884 
-0.99 -0.39 -0.100906 1.80846 0.00908325 0.00878281 -5.40836e-05 0.00894579 1.57951e-07 271.973 
-0.81 -0.43 -3.03607 0.986288 0.00910657 0.00873503 -1.40227e-05 0.00893401 1.57617e-07 272.191 
-0.89 -0.41 -1.68509 1.38431 0.00910227 0.00873296 -3.94265e-05 0.00892396 1.57346e-07 272.354 
-0.97 -0.39 -0.592074 1.39387 0.00908758 0.00877117 -5.1332e-05 0.00893567 1.57682e-07 272.13 
-0.79 -0.43 -3.19731 0.815012 0.00911601 0.00874614 -8.42543e-06 0.0089407 1.57804e-07 272.072 
-0.87 -0.41 -2.02585 1.25022 0.00909838 0.00872515 -3.59934e-05 0.00892303 1.57274e-07 272.45 
-0.95 -0.39 -1.04284 1.56606 0.00908166 0.00874346 -4.54313e-05 0.00891612 1.5726e-07 272.262 
-0.77 -0.43 -3.49493 0.782089 0.00913168 0.00878535 2.97811e-06 0.00896901 1.58198e-07 272.253 
-0.85 -0.41 -2.56319 1.06611 0.00909913 0.00873667 -3.78418e-05 0.00892956 1.57604e-07 272.077 
-0.93 -0.39 -0.673207 1.78482 0.00909468 0.00873166 -3.58761e-05 0.00892314 1.57531e-07 272.009 
-0.83 -0.41 -2.75751 1.18225 0.00911381 0.00873913 -2.97072e-05 0.00893387 1.57673e-07 272.09 
-0.91 -0.39 -1.20498 1.791 0.00909829 0.00873295 -4.63459e-05 0.00892585 1.57463e-07 272.208 
-0.99 -0.37 0.0912181 1.99729 0.00908685 0.00879512 -6.11505e-05 0.00895476 1.58176e-07 271.859 
-0.81 -0.41 -2.8163 1.29573 0.00912631 0.0087284 -1.82229e-05 0.00893691 1.57749e-07 272.051 
-0.89 -0.39 -1.48974 1.50011 0.00910941 0.00873436 -4.83386e-05 0.00893708 1.57615e-07 272.288 
-0.97 -0.37 -0.259501 2.07673 0.00909423 0.00875512 -5.77948e-05 0.00893937 1.57683e-07 272.241 
-0.79 -0.41 -3.26633 1.01448 0.00913923 0.00874991 -1.60109e-05 0.00895577 1.58088e-07 272.042 
-0.87 -0.39 -1.7605 1.60044 0.00912359 0.00871885 -4.18968e-05 0.00893177 1.575e-07 272.325 
-0.95 -0.37 -0.70691 1.71784 0.00911037 0.00874043 -5.11778e-05 0.00893223 1.57694e-07 272.004 
-0.77 -0.41 -3.67227 1.21823 0.00914256 0.00877458 -2.02372e-05 0.00897105 1.58339e-07 272.073 
-0.85 -0.39 -2.081 1.53496 0.00913683 0.00874229 -4.09354e-05 0.00894686 1.58025e-07 271.879 
-0.93 -0.37 -1.31191 1.86935 0.00911976 0.00873392 -5.02741e-05 0.00893843 1.57705e-07 272.173 
-0.75 -0.41 -3.86323 1.1013 0.0091629 0.0087962 -7.66987e-06 0.00899 1.58606e-07 272.189 
-0.83 -0.39 -2.56893 1.43838 0.00913202 0.00872704 -3.93207e-05 0.0089367 1.57795e-07 271.966 
-0.91 -0.37 -1.29667 2.01939 0.00913799 0.0087366 -5.7711e-05 0.00894709 1.57722e-07 272.408 
-0.99 -0.35 -0.19474 2.03262 0.00910645 0.00878659 -7.72935e-05 0.00895878 1.58222e-07 271.903 
-0.81 -0.39 -2.83907 1.32835 0.00913654 0.00872487 -3.30397e-05 0.00893893 1.57715e-07 272.172 
-0.89 -0.37 -1.71089 1.96961 0.00914084 0.00873069 -5.02889e-05 0.00894616 1.57796e-07 272.252 
-0.97 -0.35 -0.404563 2.52425 0.00911085 0.00874767 -6.54465e-05 0.00894213 1.57868e-07 272.005 
-0.79 -0.39 -3.15679 1.61425 0.00914544 0.00874033 -2.70671e-05 0.0089565 1.58091e-07 272.059 
-0.87 -0.37 -2.19379 1.9852 0.00913654 0.00871614 -5.25637e-05 0.00893631 1.57552e-07 272.374 
-0.95 -0.35 -0.684737 2.04921 0.00912115 0.00873186 -5.97869e-05 0.00893582 1.57779e-07 271.966 
-0.77 -0.39 -3.67458 1.56025 0.00915549 0.00878188 -2.11103e-05 0.00898455 1.58479e-07 272.241 
-0.85 -0.37 -2.51215 1.7932 0.00913961 0.00873911 -4.9464e-05 0.0089433 1.57864e-07 272.047 
-0.93 -0.35 -1.06616 2.35503 0.00912868 0.00873865 -6.49045e-05 0.00894628 1.57817e-07 272.22 
-0.83 -0.37 -2.73099 1.79858 0.00914746 0.0087177 -4.06686e-05 0.00893887 1.5782e-07 271.99 
-0.91 -0.35 -1.50998 2.35219 0.0091207 0.00873725 -5.57338e-05 0.00893241 1.57611e-07 272.153 
-0.81 -0.37 -3.15617 1.62747 0.00915761 0.00872105 -3.42478e-05 0.00894873 1.57889e-07 272.169 
-0.89 -0.35 -1.81285 2.38979 0.00912753 0.00872391 -5.71031e-05 0.00893144 1.57602e-07 272.138 
-0.79 -0.37 -3.58394 2.01339 0.00915816 0.00874168 -3.17491e-05 0.00896531 1.58354e-07 271.873 
-0.87 -0.35 -2.20206 2.20093 0.00914638 0.00872095 -5.39428e-05 0.00894261 1.57759e-07 272.207 
-0.77 -0.37 -3.84616 2.11992 0.0091644 0.00877562 -2.84361e-05 0.00897837 1.58467e-07 272.076 
-0.85 -0.35 -2.61111 2.27659 0.00915434 0.00872367 -5.03094e-05 0.00894223 1.5791e-07 271.936 
-0.83 -0.35 -3.02801 2.11591 0.00915249 0.00871824 -4.76171e-05 0.00893804 1.57831e-07 271.945 
-0.81 -0.35 -3.4461 2.20105 0.00915425 0.00872056 -4.7399e-05 0.00894792 1.57972e-07 272.003 
-0.79 -0.35 -3.71507 2.30077 0.00917412 0.00873763 -4.13487e-05 0.0089657 1.58336e-07 271.917 
-0.77 -0.35 -3.91492 2.38622 0.00918362 0.00876531 -3.35567e-05 0.00898328 1.58428e-07 272.291 
-0.75 -0.35 -4.15882 2.32735 0.00918788 0.00878261 -2.38488e-05 0.00899593 1.58728e-07 272.158 
-0.75 -0.49 -2.69857 0.156494 0.00908658 0.00881101 2.86695e-05 0.00895167 1.57869e-07 272.293 
-0.75 -0.43 -3.85336 0.78229 0.00914066 0.00880309 7.30493e-07 0.00898342 1.5839e-07 272.36 
-0.75 -0.39 -4.46586 1.58936 0.00915656 0.0087824 -2.11108e-05 0.00898664 1.5856e-07 272.166 
-0.75 -0.37 -4.05901 2.05648 0.00916485 0.00878071 -2.24913e-05 0.008981 1.5838e-07 272.304 
-0.77 -0.33 -3.99794 2.64484 0.00915881 0.0087529 -4.41878e-05 0.00895812 1.58289e-07 271.767 
-0.73 -0.49 -3.00644 0.163072 0.0090863 0.00882131 2.452e-05 0.00896241 1.58094e-07 272.232 
-0.73 -0.47 -3.30278 0.148315 0.00910966 0.00881108 2.89735e-05 0.00897425 1.58166e-07 272.468 
-0.73 -0.45 -3.85391 0.262609 0.00912731 0.00880769 1.52703e-05 0.00897548 1.58306e-07 272.264 
-0.73 -0.43 -4.38401 0.821716 0.00915505 0.00880736 3.94253e-06 0.00899138 1.58555e-07 272.317 
-0.73 -0.41 -4.29606 1.09332 0.0091663 0.00880748 -4.88546e-06 0.00899869 1.58684e-07 272.318 
-0.73 -0.39 -4.6066 1.4608 0.00916905 0.0088019 -6.17217e-06 0.00899635 1.58677e-07 272.26 
-0.73 -0.37 -4.46965 1.68243 0.00916479 0.00878083 -2.36978e-05 0.00898258 1.58466e-07 272.204 
-0.73 -0.35 -4.50775 2.07298 0.0091844 0.00877909 -1.93831e-05 0.00899063 1.58616e-07 272.191 
-0.81 -0.29 -3.31751 3.32761 0.00915362 0.00871593 -6.80044e-05 0.00894342 1.5803e-07 271.765 
-0.89 -0.27 -1.77464 3.819 0.00911926 0.00869678 -8.6953e-05 0.00892304 1.57458e-07 272.132 
-0.97 -0.25 -0.616643 3.74945 0.00909715 0.00872433 -0.00010855 0.00891988 1.5752e-07 271.928 
-0.83 -0.29 -3.0416 3.39629 0.00914512 0.00872362 -7.17717e-05 0.00894663 1.57779e-07 272.296 
-0.91 -0.27 -1.3066 3.90502 0.00912018 0.00870375 -8.91021e-05 0.00892787 1.5765e-07 271.946 
-0.99 -0.25 -0.263908 3.79669 0.00909214 0.00874432 -0.00011559 0.00892922 1.57772e-07 271.777 
-0.79 -0.29 -3.64399 3.29019 0.00916925 0.00872282 -6.09275e-05 0.0089526 1.5809e-07 271.942 
-0.87 -0.27 -2.36847 4.06012 0.00912555 0.00870677 -7.44158e-05 0.00893537 1.57764e-07 271.978 
-0.95 -0.25 -0.807032 3.84827 0.00910695 0.0087279 -0.00011055 0.00892984 1.57715e-07 271.895 
-0.77 -0.29 -4.05248 3.241 0.00918567 0.00874585 -5.04736e-05 0.00897533 1.58632e-07 271.7 
-0.85 -0.27 -2.64287 3.62299 0.00914141 0.00871388 -7.3064e-05 0.00893723 1.57741e-07 272.075 
-0.93 -0.25 -1.17786 4.0157 0.00910283 0.00870462 -0.000107101 0.00891643 1.57449e-07 271.945 
-0.75 -0.29 -4.53308 3.13255 0.00918648 0.00876545 -5.31531e-05 0.00898778 1.5867e-07 272.012 
-0.83 -0.27 -2.96535 3.73295 0.00915329 0.00872837 -7.35416e-05 0.00895524 1.58126e-07 271.96 
-0.91 -0.25 -1.54064 4.21729 0.00911794 0.00869625 -9.62432e-05 0.00891636 1.57464e-07 271.917 
-0.99 -0.23 0.0375661 4.08481 0.00907503 0.00873937 -0.0001269 0.00892111 1.57556e-07 271.903 
-0.81 -0.27 -3.58386 3.68101 0.00916034 0.00871476 -8.15383e-05 0.00894981 1.58046e-07 271.932 
-0.89 -0.25 -2.04349 4.34767 0.00912909 0.00869042 -8.72146e-05 0.00892695 1.57502e-07 272.175 
-0.97 -0.23 -0.184205 4.00686 0.00909018 0.00873208 -0.000122078 0.00892494 1.57687e-07 271.794 
-0.79 -0.27 -4.03656 3.69882 0.00917078 0.00870766 -7.44941e-05 0.00894582 1.58105e-07 271.71 
-0.87 -0.25 -2.2417 4.30011 0.00914537 0.00870209 -8.59534e-05 0.00894446 1.57971e-07 271.899 
-0.95 -0.23 -0.727391 4.22235 0.00909496 0.00871247 -0.000119069 0.00891761 1.57431e-07 272.012 
-0.77 -0.27 -4.32508 3.67807 0.00917628 0.00874137 -6.22998e-05 0.00897395 1.58558e-07 271.786 
-0.85 -0.25 -2.58172 4.05525 0.00915722 0.00871734 -8.89578e-05 0.00894523 1.57902e-07 272.04 
-0.93 -0.23 -1.04846 4.36563 0.00911133 0.00870648 -0.000112026 0.00892306 1.57508e-07 272.045 
-0.83 -0.25 -3.04272 4.0379 0.00915875 0.00871696 -8.49166e-05 0.00894195 1.58188e-07 271.449 
-0.91 -0.23 -1.311 4.65079 0.00911681 0.00868254 -0.000105638 0.0089195 1.57418e-07 272.092 
-0.99 -0.21 0.0176826 4.09544 0.00909136 0.0087361 -0.000132955 0.0089287 1.57813e-07 271.692 
-0.81 -0.25 -3.21853 4.25258 0.00916033 0.0087274 -7.77362e-05 0.00895399 1.58305e-07 271.614 
-0.89 -0.23 -1.83814 4.84261 0.0091253 0.00868369 -9.82465e-05 0.00891941 1.5754e-07 271.879 
-0.97 -0.21 -0.142997 4.36537 0.00910074 0.00871074 -0.000129044 0.00892068 1.57706e-07 271.631 
-0.79 -0.25 -3.79748 4.29184 0.00915182 0.00869599 -7.89398e-05 0.0089334 1.57929e-07 271.635 
-0.87 -0.23 -2.31914 4.53549 0.00913573 0.00870647 -0.000102146 0.00893179 1.57769e-07 271.862 
-0.95 -0.21 -0.462836 4.6394 0.0091105 0.00871896 -0.000123089 0.00892839 1.57527e-07 272.175 
-0.77 -0.25 -4.35103 3.80522 0.00916078 0.00873684 -8.04873e-05 0.0089552 1.58216e-07 271.804 
-0.85 -0.23 -2.71845 4.63681 0.009139 0.00870977 -8.97096e-05 0.00892979 1.57764e-07 271.809 
-0.93 -0.21 -1.16657 4.79127 0.00911046 0.00869802 -0.000121571 0.00891537 1.57545e-07 271.747 
-0.83 -0.23 -3.15302 4.38621 0.00913665 0.00871218 -8.09e-05 0.0089319 1.57848e-07 271.728 
-0.91 -0.21 -1.47175 4.87913 0.00911586 0.00867588 -0.000112774 0.0089151 1.57539e-07 271.75 
-0.99 -0.19 -0.191277 4.23884 0.00907545 0.00872813 -0.000147954 0.00891831 1.57572e-07 271.791 
-0.81 -0.23 -3.55532 4.3958 0.00914944 0.00871931 -8.68572e-05 0.00894747 1.58072e-07 271.817 
-0.89 -0.21 -1.72393 5.41779 0.00913369 0.00868999 -0.000111772 0.00893562 1.57812e-07 271.904 
-0.97 -0.19 -0.602192 4.81182 0.00908932 0.00870687 -0.000143049 0.00890572 1.57596e-07 271.364 
-0.79 -0.23 -3.59946 4.77673 0.00916807 0.00870717 -8.24794e-05 0.00894823 1.58178e-07 271.657 
-0.87 -0.21 -2.15398 4.96761 0.00913687 0.00868872 -0.000110227 0.00892795 1.57888e-07 271.539 
-0.95 -0.19 -0.885815 5.01549 0.00910374 0.00871665 -0.000130301 0.00891611 1.57545e-07 271.769 
-0.77 -0.23 -3.91289 4.26848 0.00917059 0.00873619 -8.79551e-05 0.00896544 1.58372e-07 271.847 
-0.85 -0.21 -2.79052 5.04518 0.00914721 0.00870249 -9.20836e-05 0.00893803 1.57828e-07 271.95 
-0.93 -0.19 -0.925345 5.26811 0.00911421 0.00869071 -0.000122167 0.00891969 1.57729e-07 271.561 
-0.75 -0.23 -4.4128 3.97623 0.00917427 0.00875117 -9.02177e-05 0.00897645 1.58469e-07 272.013 
-0.83 -0.21 -3.1809 4.66703 0.00916315 0.00871912 -9.47551e-05 0.00895062 1.57961e-07 272.104 
-0.91 -0.19 -1.48233 5.22524 0.00911704 0.00866964 -0.000125399 0.00890594 1.57424e-07 271.669 
-0.81 -0.21 -3.44462 4.7072 0.00915684 0.00871336 -8.44027e-05 0.00895317 1.58288e-07 271.619 
-0.89 -0.19 -1.89335 5.69359 0.00912246 0.00868386 -0.000113526 0.00891733 1.57505e-07 271.876 
-0.79 -0.21 -3.75872 4.91292 0.00914789 0.00870829 -9.40933e-05 0.00894565 1.58135e-07 271.653 
-0.87 -0.19 -2.25909 5.40054 0.00912368 0.00868627 -0.000104435 0.00891982 1.57679e-07 271.651 
-0.77 -0.21 -4.07829 4.81493 0.00916519 0.00873906 -9.54457e-05 0.00896294 1.58352e-07 271.804 
-0.85 -0.19 -2.47451 5.40724 0.00912782 0.00869105 -0.00011225 0.00892554 1.57841e-07 271.547 
-0.75 -0.21 -4.60011 4.45084 0.00917406 0.00874655 -9.63005e-05 0.00897427 1.58464e-07 271.957 
-0.83 -0.19 -2.83235 5.12928 0.00912563 0.00871319 -0.000103029 0.00893543 1.57849e-07 271.834 
-0.81 -0.19 -3.27687 5.12303 0.00914827 0.0087023 -9.90121e-05 0.00893802 1.58054e-07 271.56 
-0.79 -0.19 -3.87829 5.05593 0.00916866 0.00872996 -9.32628e-05 0.00896628 1.58421e-07 271.787 
-0.77 -0.19 -4.06277 5.26782 0.00916995 0.00874105 -0.000106287 0.00896634 1.58529e-07 271.604 
-0.99 -0.33 -0.139607 2.40178 0.00909699 0.00877378 -8.24687e-05 0.00894861 1.57935e-07 272.087 
-0.97 -0.33 -0.418469 2.53952 0.00911335 0.00874855 -7.95985e-05 0.00894312 1.57909e-07 271.965 
-0.91 -0.33 -1.48735 2.83221 0.00915241 0.00873996 -6.34681e-05 0.00894526 1.57818e-07 272.186 
-0.99 -0.31 -0.21753 2.86147 0.00908495 0.00875862 -9.3241e-05 0.00893345 1.57749e-07 271.946 
-0.97 -0.31 -0.391803 2.60296 0.00909637 0.0087484 -8.34562e-05 0.00893352 1.57879e-07 271.724 
-0.87 -0.33 -2.20005 2.62086 0.00914338 0.00872624 -6.43437e-05 0.00894229 1.57837e-07 272.063 
-0.95 -0.31 -0.950876 3.14504 0.00910043 0.00871931 -8.4435e-05 0.00892031 1.57502e-07 271.972 
-0.85 -0.33 -2.27569 2.43084 0.00914098 0.00871299 -5.61779e-05 0.00894108 1.5772e-07 272.228 
-0.93 -0.31 -1.29318 3.17974 0.00911977 0.00873337 -8.76225e-05 0.00893744 1.57725e-07 272.108 
-0.91 -0.31 -1.57748 2.95836 0.00913792 0.00872118 -7.21642e-05 0.00894175 1.57687e-07 272.306 
-0.99 -0.29 -0.124257 3.09617 0.00907401 0.00875953 -0.000100104 0.00893204 1.57704e-07 271.981 
-0.81 -0.33 -3.29993 2.54361 0.00916156 0.00872108 -4.80328e-05 0.00895742 1.58017e-07 272.214 
-0.89 -0.31 -1.72055 3.15792 0.00914592 0.00871665 -5.75763e-05 0.00894378 1.57808e-07 272.16 
-0.97 -0.29 -0.507479 3.0587 0.00908189 0.00872926 -9.56661e-05 0.00891782 1.5748e-07 271.934 
-0.87 -0.31 -2.20681 2.85087 0.00914949 0.00872604 -6.21661e-05 0.00894436 1.57947e-07 271.937 
-0.95 -0.29 -0.714435 3.45603 0.00909768 0.00872395 -9.36666e-05 0.00892587 1.57494e-07 272.155 
-0.85 -0.31 -2.77057 2.77691 0.00914806 0.00870355 -5.83769e-05 0.00893646 1.57797e-07 271.954 
-0.93 -0.29 -1.00563 3.25631 0.00910133 0.00873266 -9.47888e-05 0.00892498 1.57473e-07 272.164 
-0.83 -0.31 -2.96364 3.12645 0.00914879 0.00872236 -5.13591e-05 0.00895397 1.5795e-07 272.224 
-0.91 -0.29 -1.20471 3.53858 0.00909336 0.00869989 -8.21368e-05 0.00890975 1.57327e-07 271.953 
-0.99 -0.27 -0.112832 3.35181 0.00908402 0.00875442 -0.00011137 0.00893808 1.57912e-07 271.806 
-0.81 -0.31 -3.35582 2.9678 0.00915551 0.00871778 -5.70247e-05 0.00895432 1.58063e-07 272.04 
-0.89 -0.29 -1.59349 3.40057 0.00911307 0.00871139 -7.62346e-05 0.00892512 1.57573e-07 271.996 
-0.97 -0.27 -0.493272 3.4362 0.00908792 0.00872501 -0.000106273 0.00892193 1.57502e-07 272.022 
-0.79 -0.31 -3.73031 2.87842 0.00916295 0.00872901 -5.1063e-05 0.0089551 1.58148e-07 271.918 
-0.87 -0.29 -2.05906 3.46352 0.00912621 0.0087178 -5.69305e-05 0.00893364 1.57801e-07 271.863 
-0.95 -0.27 -0.714015 3.61386 0.00909556 0.00872455 -0.000101285 0.00892431 1.57519e-07 272.064 
-0.77 -0.31 -4.04791 2.99991 0.00916687 0.00874577 -4.7529e-05 0.00895611 1.58359e-07 271.587 
-0.85 -0.29 -2.67045 3.28155 0.0091313 0.00870411 -6.03582e-05 0.00892972 1.57847e-07 271.664 
-0.93 -0.27 -0.902645 3.62504 0.00910599 0.00871667 -9.46534e-05 0.00891855 1.57302e-07 272.265 
-0.95 -0.33 -0.55277 2.54661 0.00912081 0.00872143 -7.15728e-05 0.00893011 1.57663e-07 271.993 
-0.93 -0.33 -1.04933 2.7303 0.00913581 0.00873401 -6.21802e-05 0.008939 1.57765e-07 272.088 
-0.89 -0.33 -2.09718 2.70434 0.00914671 0.00871527 -5.89768e-05 0.00893494 1.57667e-07 272.133 
-0.83 -0.33 -2.8579 2.74544 0.00914982 0.00871667 -4.96458e-05 0.0089514 1.57924e-07 272.19 
-0.75 -0.31 -4.30153 2.74568 0.00917563 0.00876449 -4.49686e-05 0.00898516 1.58604e-07 272.046 
-0.75 -0.27 -4.48455 3.59248 0.00920131 0.00876301 -6.0181e-05 0.00899162 1.58785e-07 271.932 
-0.75 -0.25 -4.60048 3.73513 0.00917356 0.00875914 -7.04938e-05 0.0089726 1.5852e-07 271.81 
-0.75 -0.19 -4.44288 4.93884 0.00916322 0.00873678 -9.94996e-05 0.00896413 1.58566e-07 271.475 
-0.79 -0.33 -3.70902 2.51904 0.00915466 0.00873495 -4.93267e-05 0.0089574 1.58198e-07 271.902 
-0.75 -0.33 -4.30027 2.53958 0.00916982 0.00877012 -2.93357e-05 0.00897864 1.58531e-07 271.973 
-0.81 -0.17 -3.5515 5.71375 0.00913168 0.00869645 -0.000110051 0.00892338 1.57737e-07 271.661 
-0.79 -0.17 -3.90482 5.58653 0.00913904 0.00873517 -0.000111284 0.00895455 1.58194e-07 271.821 
-0.75 -0.17 -4.43174 5.48666 0.00916491 0.00874206 -0.000106322 0.00896585 1.58443e-07 271.736 
-0.73 -0.31 -4.80745 2.85407 0.0091876 0.00878187 -4.70181e-05 0.00899751 1.58691e-07 272.27 
-0.73 -0.29 -4.65487 3.20437 0.00918795 0.00877727 -4.92992e-05 0.00899136 1.58871e-07 271.777 
-0.73 -0.27 -5.0296 3.33991 0.00920939 0.0087859 -6.4225e-05 0.00900948 1.59023e-07 272.063 
-0.73 -0.25 -4.62222 3.77485 0.00918751 0.00877779 -6.60611e-05 0.00899328 1.58954e-07 271.692 
-0.73 -0.23 -4.78723 4.04586 0.00918161 0.00877452 -7.54194e-05 0.0089877 1.58763e-07 271.851 
-0.73 -0.21 -5.04137 4.36096 0.00918973 0.00877115 -9.5609e-05 0.00898441 1.58611e-07 272.012 
-0.73 -0.19 -4.75792 4.8139 0.00916699 0.00878021 -0.000102588 0.00897945 1.587e-07 271.708 
-0.79 -0.05 -3.18159 7.59854 0.00905405 0.00871443 -0.000153176 0.00889946 1.57477e-07 271.38 
-0.87 -0.03 -2.08248 8.34562 0.0089959 0.00862538 -0.000183877 0.00882999 1.56368e-07 271.17 
-0.83 -0.05 -2.71825 8.01507 0.00903084 0.00867715 -0.000152325 0.00887392 1.56984e-07 271.45 
-0.91 -0.03 -1.65442 8.11085 0.00899352 0.00862171 -0.000187673 0.00883005 1.56184e-07 271.492 
-0.81 -0.05 -2.89594 7.76037 0.00904358 0.00869602 -0.000138054 0.00888774 1.5735e-07 271.241 
-0.89 -0.03 -1.71959 8.35613 0.00898996 0.00862703 -0.000183258 0.00882913 1.56295e-07 271.272 
-0.77 -0.05 -3.56096 7.34448 0.00906569 0.00873926 -0.00015318 0.00892144 1.57682e-07 271.697 
-0.85 -0.03 -2.47546 8.14009 0.00899953 0.00864794 -0.000176899 0.00884965 1.56635e-07 271.311 
-0.75 -0.05 -3.84918 7.19738 0.00907819 0.0087664 -0.000164118 0.0089298 1.57836e-07 271.684 
-0.83 -0.03 -2.72437 8.3357 0.00901822 0.00866428 -0.00016686 0.00886552 1.57004e-07 271.159 
-0.81 -0.03 -3.19099 7.98128 0.0090305 0.00869353 -0.000157518 0.00887863 1.57192e-07 271.234 
-0.79 -0.03 -3.23685 8.13349 0.00904991 0.00872051 -0.000155145 0.00890169 1.57524e-07 271.366 
-0.77 -0.03 -3.61715 7.51153 0.00905867 0.00874585 -0.00016271 0.00891572 1.57644e-07 271.587 
-0.95 -0.17 -0.71 5.12062 0.00908544 0.00869792 -0.000146493 0.00890007 1.57425e-07 271.488 
-0.99 -0.15 -0.154886 4.83105 0.0090447 0.00870778 -0.000174263 0.00889403 1.57243e-07 271.618 
-0.89 -0.17 -1.93893 5.86619 0.00910894 0.00866882 -0.000120616 0.00890588 1.57364e-07 271.77 
-0.97 -0.15 -0.405043 5.48152 0.00906684 0.00870811 -0.000163852 0.00889779 1.57333e-07 271.577 
-0.95 -0.15 -0.861947 5.64704 0.00907338 0.00867827 -0.000151808 0.00888757 1.57228e-07 271.445 
-0.93 -0.15 -1.17992 5.97652 0.00907854 0.00866971 -0.000137637 0.00889192 1.57288e-07 271.475 
-0.83 -0.17 -2.95914 5.55178 0.00913495 0.00871736 -0.000102636 0.00894001 1.57902e-07 271.883 
-0.91 -0.15 -1.40274 6.15996 0.00909316 0.00867564 -0.000136844 0.00890246 1.57435e-07 271.544 
-0.99 -0.13 -0.258079 5.22276 0.00905044 0.00870838 -0.00019176 0.00889304 1.57336e-07 271.426 
-0.89 -0.15 -1.5891 6.16932 0.00909072 0.00865602 -0.000127846 0.00888999 1.57234e-07 271.509 
-0.97 -0.13 -0.50477 5.85717 0.00905923 0.00868767 -0.000168783 0.00888579 1.57191e-07 271.455 
-0.87 -0.15 -2.25665 5.99113 0.00909658 0.00868626 -0.000123245 0.00891555 1.57457e-07 271.905 
-0.95 -0.13 -0.908627 6.07213 0.00907212 0.00866698 -0.00016483 0.0088852 1.57304e-07 271.243 
-0.77 -0.17 -4.1785 5.20411 0.00915186 0.00873425 -0.000105494 0.00896197 1.58493e-07 271.534 
-0.85 -0.15 -2.57396 6.26662 0.0091031 0.00868246 -0.000113488 0.00891104 1.57546e-07 271.614 
-0.93 -0.13 -1.15383 6.05515 0.00908619 0.00867044 -0.00015498 0.00889639 1.57271e-07 271.641 
-0.83 -0.15 -2.95922 6.02022 0.00912025 0.00870581 -0.00012029 0.00892724 1.57783e-07 271.698 
-0.91 -0.13 -1.59454 6.57275 0.00908489 0.00865595 -0.000142354 0.00889554 1.5732e-07 271.531 
-0.99 -0.11 -0.144253 5.58036 0.00903973 0.00869144 -0.000185566 0.00888107 1.57006e-07 271.631 
-0.81 -0.15 -3.28169 6.13641 0.0091298 0.00870906 -0.000113472 0.00893751 1.57816e-07 271.954 
-0.89 -0.13 -1.87941 6.41778 0.00909415 0.0086618 -0.000133391 0.00889609 1.57482e-07 271.268 
-0.97 -0.11 -0.55484 6.13452 0.00903617 0.00867803 -0.00018671 0.00887665 1.56911e-07 271.66 
-0.79 -0.15 -3.79117 5.83644 0.00913298 0.00872765 -0.00011888 0.00895005 1.58143e-07 271.773 
-0.87 -0.13 -2.37655 6.68571 0.00910138 0.00866608 -0.000129522 0.00890524 1.5762e-07 271.309 
-0.95 -0.11 -0.803181 6.42778 0.00904759 0.00865837 -0.000173016 0.008871 1.57031e-07 271.279 
-0.77 -0.15 -4.22794 5.675 0.00914226 0.00873498 -0.000115983 0.00895625 1.58404e-07 271.512 
-0.85 -0.13 -2.70262 6.32848 0.00912027 0.00869029 -0.000128081 0.00891855 1.57681e-07 271.609 
-0.93 -0.11 -1.25179 6.54396 0.009061 0.00865912 -0.000166683 0.0088781 1.57226e-07 271.159 
-0.75 -0.15 -4.56311 5.81856 0.00914832 0.00874122 -0.000112407 0.00896072 1.58545e-07 271.407 
-0.83 -0.13 -2.92271 6.53054 0.00912611 0.00869803 -0.000127625 0.00892595 1.57551e-07 272.059 
-0.91 -0.11 -1.50799 6.90836 0.00906961 0.00864249 -0.000150029 0.0088742 1.57107e-07 271.246 
-0.99 -0.09 -0.0829246 5.8722 0.00899703 0.0086849 -0.000201534 0.00885588 1.56702e-07 271.387 
-0.81 -0.13 -3.40547 6.49756 0.0091158 0.00870495 -0.000116565 0.00892684 1.58e-07 271.313 
-0.89 -0.11 -1.90817 6.9334 0.00908541 0.00865873 -0.00014403 0.00888689 1.57507e-07 270.945 
-0.97 -0.09 -0.459661 6.64957 0.00901926 0.00866878 -0.000193216 0.00887082 1.56952e-07 271.411 
-0.79 -0.13 -3.58661 6.37816 0.00912933 0.00872973 -0.000124542 0.00894851 1.58101e-07 271.798 
-0.87 -0.11 -2.25037 7.03563 0.0090958 0.00866034 -0.000147081 0.00889928 1.57556e-07 271.238 
-0.95 -0.09 -0.942082 6.75123 0.00903182 0.0086563 -0.000180243 0.00887159 1.56988e-07 271.373 
-0.77 -0.13 -4.05509 6.06828 0.0091317 0.00873054 -0.000122034 0.00894436 1.58126e-07 271.628 
-0.85 -0.11 -2.56343 6.73165 0.00910308 0.00868918 -0.000132899 0.00890919 1.57713e-07 271.27 
-0.93 -0.09 -1.20873 6.79135 0.00903577 0.00864238 -0.000177181 0.00886094 1.57016e-07 270.998 
-0.83 -0.11 -2.95681 7.0565 0.00910027 0.0086843 -0.000124573 0.00891194 1.57635e-07 271.488 
-0.91 -0.09 -1.40061 7.24398 0.00904454 0.00863203 -0.000161861 0.00886004 1.56946e-07 271.091 
-0.99 -0.07 -0.348341 6.27578 0.0090038 0.00868105 -0.000204844 0.00885823 1.56611e-07 271.615 
-0.81 -0.11 -3.3163 6.57721 0.00912632 0.00871728 -0.000127136 0.00893456 1.57809e-07 271.877 
-0.89 -0.09 -1.88607 7.33147 0.00906021 0.00865727 -0.000160805 0.00887902 1.57305e-07 271.052 
-0.97 -0.07 -0.580887 7.00381 0.00899001 0.008654 -0.000201046 0.00884537 1.565e-07 271.414 
-0.79 -0.11 -3.47349 6.73028 0.00912873 0.00872512 -0.000129605 0.00894594 1.58236e-07 271.489 
-0.87 -0.09 -2.14903 7.34403 0.00907382 0.00865473 -0.000155993 0.00888788 1.57492e-07 271 
-0.95 -0.07 -0.744556 7.06716 0.00899351 0.00865269 -0.000191852 0.00884686 1.56399e-07 271.635 
-0.77 -0.11 -3.96912 6.31259 0.00912877 0.00872233 -0.000126798 0.00894125 1.5803e-07 271.699 
-0.85 -0.09 -2.53271 7.14859 0.00908037 0.00867032 -0.000146687 0.00889151 1.5745e-07 271.183 
-0.93 -0.07 -1.13719 7.22395 0.00900409 0.00862942 -0.000181681 0.00884499 1.56656e-07 271.132 
-0.75 -0.11 -4.44799 6.30506 0.00913704 0.00875039 -0.000127026 0.0089522 1.58382e-07 271.427 
-0.83 -0.09 -2.84007 7.22081 0.00909862 0.00869042 -0.000137229 0.00891296 1.57668e-07 271.462 
-0.91 -0.07 -1.69052 7.5144 0.00902686 0.00862745 -0.000181283 0.00885323 1.56616e-07 271.454 
-0.99 -0.05 0.0199272 6.64231 0.00898028 0.00866924 -0.000213844 0.00884227 1.56459e-07 271.389 
-0.81 -0.09 -3.1946 7.09911 0.00910102 0.00871646 -0.000139994 0.00892397 1.57885e-07 271.424 
-0.89 -0.07 -1.96126 7.61932 0.00903866 0.00865065 -0.000177327 0.00886599 1.56968e-07 271.236 
-0.97 -0.05 -0.449967 7.21739 0.00900763 0.00865576 -0.00020557 0.00885162 1.56664e-07 271.321 
-0.79 -0.09 -3.62675 6.91233 0.00910614 0.00872083 -0.000126336 0.00892688 1.57832e-07 271.603 
-0.87 -0.07 -2.29873 7.81016 0.00903957 0.00864082 -0.000158063 0.00886508 1.56898e-07 271.329 
-0.95 -0.05 -0.733325 7.38447 0.00900721 0.00863437 -0.000194985 0.00884062 1.56368e-07 271.497 
-0.77 -0.09 -3.83023 6.8739 0.00910243 0.00872301 -0.000122326 0.00893228 1.5795e-07 271.564 
-0.85 -0.07 -2.60132 7.48409 0.00904581 0.00865834 -0.000151255 0.00887624 1.56933e-07 271.609 
-0.93 -0.05 -1.2501 7.80209 0.00900296 0.00862694 -0.000185442 0.00883739 1.56402e-07 271.338 
-0.75 -0.09 -4.09134 6.58832 0.00909758 0.00875239 -0.000136769 0.00893948 1.58046e-07 271.618 
-0.83 -0.07 -2.94112 7.60819 0.00905594 0.00869109 -0.000146481 0.00888879 1.57221e-07 271.495 
-0.91 -0.05 -1.45901 7.94127 0.00899602 0.00862577 -0.000186478 0.00883516 1.56393e-07 271.287 
-0.99 -0.03 -0.184401 6.99056 0.0089552 0.00865799 -0.00023138 0.00882111 1.56061e-07 271.43 
-0.81 -0.07 -3.36541 7.65407 0.00905683 0.00870662 -0.000145915 0.00889956 1.57497e-07 271.348 
-0.89 -0.05 -1.81388 7.97111 0.00899901 0.00863425 -0.000179921 0.00884236 1.56623e-07 271.108 
-0.97 -0.03 -0.38503 7.54127 0.00895898 0.00863384 -0.000211381 0.00881355 1.56087e-07 271.153 