ITEM: TIMESTEP
971000
ITEM: NUMBER OF CELLS
5000
ITEM: BOX BOUNDS ss ss pp
-1 1
-0.5 0.5
-0.5 0.5
ITEM: CELLS xc yc f_U[*] f_V[*] f_Tau[1] f_Tau[2] f_Tau[3] f_Press[*] f_Mrho[*] f_Ttra[*] 
-0.99 -0.49 -0.207567 0.308673 0.00899082 0.00874889 -2.9848e-05 0.00887896 1.56646e-07 272.191 
-0.97 -0.49 -0.569389 0.0605718 0.00898911 0.00874817 -3.10769e-05 0.00888013 1.56588e-07 272.328 
-0.95 -0.49 -0.645512 -0.000815804 0.00899044 0.00874171 -3.31099e-05 0.0088749 1.56621e-07 272.109 
-0.93 -0.49 -0.84116 0.180394 0.00900055 0.00875222 -2.24475e-05 0.00888398 1.56787e-07 272.099 
-0.91 -0.49 -1.14747 0.0677708 0.0090057 0.00872654 -2.13796e-05 0.00887001 1.56595e-07 272.004 
-0.99 -0.47 -0.199645 0.61442 0.00901913 0.0087718 -1.50312e-05 0.00890456 1.57007e-07 272.347 
-0.89 -0.49 -1.53871 0.237746 0.0090259 0.00874243 -2.68008e-05 0.0088861 1.56835e-07 272.081 
-0.97 -0.47 -0.441347 0.358721 0.00901467 0.00874768 -3.32732e-05 0.00889455 1.56785e-07 272.426 
-0.87 -0.49 -1.726 0.00440463 0.00904772 0.00876922 -1.50037e-05 0.00890725 1.57158e-07 272.168 
-0.95 -0.47 -0.86211 0.338153 0.00902146 0.0087463 -3.40521e-05 0.00889331 1.56782e-07 272.394 
-0.85 -0.49 -1.91712 0.14047 0.00904883 0.00875331 -6.75809e-06 0.00889951 1.56878e-07 272.417 
-0.93 -0.47 -1.0625 0.269995 0.00902472 0.00874369 -3.76739e-05 0.00889003 1.5674e-07 272.366 
-0.83 -0.49 -1.94386 -0.046844 0.00905237 0.00876277 -1.28465e-07 0.00891333 1.57109e-07 272.439 
-0.91 -0.47 -1.3215 0.654229 0.00903881 0.00873398 -3.44657e-05 0.00889125 1.56925e-07 272.082 
-0.99 -0.45 -0.109916 0.927988 0.00904263 0.00877148 -2.57865e-05 0.00891677 1.57241e-07 272.314 
-0.81 -0.49 -2.13346 0.275867 0.00906019 0.00877203 1.37416e-05 0.00892298 1.57303e-07 272.398 
-0.89 -0.47 -1.69341 0.433924 0.00904029 0.00873949 -3.42528e-05 0.00888763 1.56952e-07 271.925 
-0.97 -0.45 -0.399637 0.710145 0.00904955 0.00876222 -3.52564e-05 0.0089127 1.57128e-07 272.387 
-0.79 -0.49 -2.48561 0.0591483 0.00906717 0.00877775 1.46299e-05 0.00892874 1.57452e-07 272.315 
-0.87 -0.47 -1.93695 0.226036 0.00904203 0.00874801 -2.54643e-05 0.00890469 1.57084e-07 272.218 
-0.95 -0.45 -0.775792 0.771703 0.0090522 0.00874779 -3.88135e-05 0.00890547 1.56937e-07 272.497 
-0.77 -0.49 -2.49891 -0.0362659 0.00907058 0.00879553 2.35349e-05 0.00894465 1.57672e-07 272.42 
-0.85 -0.47 -2.09833 0.290427 0.00905397 0.00875327 -1.06676e-05 0.00891269 1.57143e-07 272.361 
-0.93 -0.45 -1.2788 0.485746 0.00906083 0.0087386 -4.63146e-05 0.00890423 1.57119e-07 272.144 
-0.83 -0.47 -2.42559 0.151846 0.00906104 0.00875262 -8.5431e-06 0.00891793 1.57208e-07 272.408 
-0.91 -0.45 -1.41082 0.824993 0.00906064 0.00873989 -3.93346e-05 0.00890059 1.57203e-07 271.887 
-0.99 -0.43 -0.177121 1.19174 0.00907 0.00876998 -3.6831e-05 0.00893577 1.57747e-07 272.021 
-0.81 -0.47 -2.57857 0.527643 0.00907355 0.00876168 -1.05374e-06 0.00892907 1.57419e-07 272.382 
-0.89 -0.45 -1.77647 0.751436 0.00907296 0.00872795 -3.90426e-05 0.00889957 1.57167e-07 271.918 
-0.97 -0.43 -0.523527 1.06331 0.0090831 0.00877237 -3.77646e-05 0.00893724 1.57577e-07 272.359 
-0.79 -0.47 -2.87628 0.324269 0.00908768 0.00877142 1.05838e-05 0.00894481 1.57727e-07 272.33 
-0.87 -0.45 -2.07003 0.555472 0.00907593 0.008739 -2.36869e-05 0.0089122 1.57192e-07 272.26 
-0.95 -0.43 -0.753452 0.984477 0.00908747 0.00875123 -4.74617e-05 0.00892375 1.57447e-07 272.172 
-0.77 -0.47 -3.20799 0.104951 0.00909961 0.00879162 1.13182e-05 0.00895465 1.5794e-07 272.262 
-0.85 -0.45 -2.35802 0.398349 0.00908378 0.00874377 -2.0964e-05 0.00892137 1.57263e-07 272.418 
-0.93 -0.43 -0.935641 0.937708 0.00908697 0.00873891 -4.18755e-05 0.00891832 1.57371e-07 272.138 
-0.75 -0.47 -3.27726 0.412893 0.00910485 0.00880076 1.77405e-05 0.00895819 1.57759e-07 272.683 
-0.83 -0.45 -2.60842 0.432992 0.00909743 0.00875629 -1.87554e-05 0.00893451 1.57599e-07 272.238 
-0.91 -0.43 -1.50375 1.05482 0.00908552 0.00873739 -4.31655e-05 0.0089102 1.57283e-07 272.043 
-0.99 -0.41 -0.202261 1.57715 0.00908542 0.00876986 -5.12119e-05 0.008941 1.57763e-07 272.152 
-0.81 -0.45 -2.91196 0.860326 0.00909576 0.00874556 -1.21719e-05 0.00893261 1.57529e-07 272.301 
-0.89 -0.43 -1.49595 1.06096 0.0090766 0.00872223 -4.22027e-05 0.00890237 1.57203e-07 271.942 
-0.97 -0.41 -0.389105 1.18987 0.0090949 0.00877024 -4.94521e-05 0.00893832 1.57562e-07 272.417 
-0.79 -0.45 -3.07369 0.61507 0.00910279 0.00876429 -8.45036e-07 0.00894339 1.57742e-07 272.261 
-0.87 -0.43 -1.85145 0.7904 0.00908523 0.0087299 -4.01455e-05 0.0089175 1.57288e-07 272.257 
-0.95 -0.41 -0.534406 1.25787 0.00910227 0.00875926 -4.46933e-05 0.00894087 1.57649e-07 272.344 
-0.77 -0.45 -3.43676 0.437924 0.00911139 0.00878458 7.88156e-06 0.0089552 1.57865e-07 272.408 
-0.85 -0.43 -2.1753 0.823719 0.00910415 0.00874231 -3.15951e-05 0.00892987 1.57543e-07 272.192 
-0.93 -0.41 -1.08752 1.41637 0.00909668 0.008726 -4.38884e-05 0.00892408 1.57496e-07 272.097 
-0.75 -0.45 -3.71939 0.499123 0.00911132 0.00879158 1.34894e-05 0.00895714 1.57978e-07 272.272 
-0.83 -0.43 -2.62058 0.793263 0.00910433 0.00874399 -1.78517e-05 0.00893067 1.57503e-07 272.286 
-0.91 -0.41 -1.23397 1.2864 0.00910266 0.00873919 -3.90569e-05 0.00892687 1.57675e-07 271.873 
-0.99 -0.39 -0.150565 1.82293 0.00908812 0.00877357 -5.20438e-05 0.00894511 1.579e-07 272.04 
-0.81 -0.43 -3.03459 1.05101 0.00911481 0.00874185 -1.65495e-05 0.00894062 1.57739e-07 272.181 
-0.89 -0.41 -1.60328 1.29572 0.00910518 0.00873241 -4.32625e-05 0.00892196 1.57388e-07 272.219 
-0.97 -0.39 -0.537144 1.41252 0.00909425 0.00877066 -5.26801e-05 0.00894029 1.57777e-07 272.106 
-0.79 -0.43 -3.36333 0.888857 0.0091243 0.00875605 -8.25693e-06 0.0089498 1.57927e-07 272.136 
-0.87 -0.41 -2.01033 1.26291 0.00910454 0.00872221 -4.32203e-05 0.00892467 1.57356e-07 272.358 
-0.95 -0.39 -0.898387 1.56551 0.00909029 0.00874726 -4.76439e-05 0.00892422 1.57422e-07 272.23 
-0.77 -0.43 -3.63346 0.734691 0.00913193 0.00877642 3.81581e-06 0.00896266 1.5812e-07 272.194 
-0.85 -0.41 -2.59773 1.14304 0.00909999 0.00873559 -3.90841e-05 0.00892928 1.5762e-07 272.042 
-0.93 -0.39 -0.789057 1.67847 0.00910307 0.00873127 -4.22426e-05 0.00892424 1.57496e-07 272.102 
-0.83 -0.41 -2.75528 1.17792 0.00911527 0.00873248 -3.24412e-05 0.00893024 1.57589e-07 272.125 
-0.91 -0.39 -1.22144 1.72311 0.0091078 0.00873853 -4.87108e-05 0.00893232 1.57612e-07 272.148 
-0.99 -0.37 0.0678438 2.08185 0.00908457 0.00878423 -6.05659e-05 0.00894694 1.58022e-07 271.887 
-0.81 -0.41 -2.96148 1.36313 0.00912437 0.00873405 -2.10686e-05 0.0089376 1.57738e-07 272.091 
-0.89 -0.39 -1.53422 1.58616 0.00911334 0.0087354 -4.77329e-05 0.00893561 1.57627e-07 272.223 
-0.97 -0.37 -0.367939 1.94855 0.00909268 0.00875764 -5.96124e-05 0.00893895 1.57756e-07 272.102 
-0.79 -0.41 -3.31415 1.09912 0.00913629 0.00875284 -1.80754e-05 0.00895665 1.58043e-07 272.146 
-0.87 -0.39 -1.89453 1.6466 0.00911782 0.00871237 -4.52696e-05 0.00892813 1.57604e-07 272.034 
-0.95 -0.37 -0.741678 1.71221 0.00910783 0.00874732 -5.2702e-05 0.00893623 1.57767e-07 272.001 
-0.77 -0.41 -3.72551 1.15943 0.0091416 0.0087684 -1.56108e-05 0.00896733 1.58266e-07 272.086 
-0.85 -0.39 -2.1898 1.60898 0.00912972 0.00873794 -4.18688e-05 0.00894437 1.57972e-07 271.895 
-0.93 -0.37 -1.22239 1.87166 0.00911302 0.00873326 -5.6345e-05 0.00893473 1.57712e-07 272.049 
-0.75 -0.41 -3.96984 1.02653 0.00916065 0.00879051 -6.30431e-06 0.00898567 1.58487e-07 272.261 
-0.83 -0.39 -2.66234 1.44864 0.00912598 0.00872229 -4.15705e-05 0.00893021 1.57669e-07 271.985 
-0.91 -0.37 -1.37457 1.96178 0.00912729 0.00873478 -5.85021e-05 0.00894075 1.57679e-07 272.289 
-0.99 -0.35 -0.206796 2.16047 0.00910122 0.00877846 -7.57126e-05 0.00895157 1.58164e-07 271.783 
-0.81 -0.39 -2.96902 1.54632 0.00913097 0.00872983 -3.65191e-05 0.00894063 1.57704e-07 272.242 
-0.89 -0.37 -1.70948 1.95663 0.00913361 0.00873134 -4.85301e-05 0.00894102 1.57877e-07 271.956 
-0.97 -0.35 -0.352828 2.42058 0.0091107 0.0087522 -6.6286e-05 0.00894473 1.5787e-07 272.081 
-0.79 -0.39 -3.24504 1.55688 0.00913988 0.00873905 -2.5185e-05 0.00895386 1.58079e-07 271.999 
-0.87 -0.37 -2.16348 2.11358 0.0091325 0.00871466 -4.988e-05 0.00893315 1.57608e-07 272.18 
-0.95 -0.35 -0.668997 2.00336 0.00911633 0.00874162 -6.39661e-05 0.00893644 1.57749e-07 272.038 
-0.77 -0.39 -3.73945 1.54043 0.00915313 0.00877475 -1.93156e-05 0.00897783 1.58412e-07 272.153 
-0.85 -0.37 -2.56245 1.98498 0.00913541 0.00873122 -5.14175e-05 0.00893946 1.57817e-07 272.012 
-0.93 -0.35 -1.10046 2.3004 0.00912185 0.00873685 -6.46872e-05 0.00893964 1.57784e-07 272.074 
-0.83 -0.37 -2.99082 1.77791 0.00914326 0.00871859 -4.16047e-05 0.00893239 1.57766e-07 271.885 
-0.91 -0.35 -1.50246 2.33649 0.00911743 0.00873344 -5.45308e-05 0.00892985 1.57603e-07 272.088 
-0.81 -0.37 -3.27509 1.67468 0.0091489 0.00872514 -3.51671e-05 0.00894763 1.57917e-07 272.087 
-0.89 -0.35 -1.90749 2.45406 0.00911833 0.00872212 -5.56842e-05 0.00892692 1.57551e-07 272.089 
-0.79 -0.37 -3.61793 1.99237 0.00914918 0.00873472 -3.52477e-05 0.00896016 1.58269e-07 271.863 
-0.87 -0.35 -2.30188 2.31613 0.00913521 0.00871967 -5.5138e-05 0.00893834 1.57744e-07 272.103 
-0.77 -0.37 -3.83025 2.03948 0.00915877 0.00877182 -2.78702e-05 0.00897461 1.58299e-07 272.25 
-0.85 -0.35 -2.70361 2.5512 0.00914494 0.00872137 -5.2977e-05 0.0089379 1.57904e-07 271.815 
-0.83 -0.35 -3.08814 2.10849 0.00914512 0.00871451 -4.68585e-05 0.00893534 1.57906e-07 271.733 
-0.81 -0.35 -3.47491 2.07173 0.00915169 0.00872457 -4.82596e-05 0.008952 1.58037e-07 272.014 
-0.79 -0.35 -3.77946 2.23351 0.00916949 0.00873382 -4.32571e-05 0.00896226 1.58326e-07 271.83 
-0.77 -0.35 -3.95396 2.27868 0.00917821 0.00875552 -3.6918e-05 0.00897752 1.58358e-07 272.237 
-0.75 -0.35 -4.19968 2.21859 0.0091893 0.00878126 -2.66565e-05 0.00899639 1.58703e-07 272.215 
-0.75 -0.49 -2.75879 0.23773 0.00907897 0.00879966 2.46614e-05 0.008942 1.57653e-07 272.373 
-0.75 -0.43 -3.88291 0.742448 0.00914145 0.00879223 3.02171e-07 0.00897586 1.58233e-07 272.402 
-0.75 -0.39 -4.43954 1.41527 0.0091561 0.00878193 -2.28485e-05 0.00898269 1.58466e-07 272.207 
-0.75 -0.37 -4.09997 1.86826 0.00916034 0.0087771 -2.07152e-05 0.00897917 1.58405e-07 272.205 
-0.77 -0.33 -3.89472 2.54616 0.00916433 0.00874736 -4.70522e-05 0.00896279 1.58373e-07 271.765 
-0.73 -0.49 -3.12145 0.186109 0.00908493 0.00881614 2.48946e-05 0.00895847 1.57936e-07 272.385 
-0.73 -0.47 -3.3215 0.268305 0.00910772 0.00880704 2.48508e-05 0.00897132 1.58158e-07 272.392 
-0.73 -0.45 -3.85189 0.410755 0.00912521 0.00880734 1.43784e-05 0.00897546 1.58329e-07 272.224 
-0.73 -0.43 -4.33833 0.878977 0.0091499 0.00880516 2.44774e-06 0.00898785 1.58438e-07 272.412 
-0.73 -0.41 -4.33267 1.16501 0.00916931 0.00880276 -7.73948e-06 0.00899586 1.58668e-07 272.26 
-0.73 -0.39 -4.50648 1.49673 0.00916612 0.0087974 -9.62397e-06 0.00898867 1.58563e-07 272.223 
-0.73 -0.37 -4.62416 1.76338 0.00916164 0.00878155 -2.45852e-05 0.00897848 1.58484e-07 272.049 
-0.73 -0.35 -4.59493 2.02529 0.00918568 0.00878159 -2.28695e-05 0.00898802 1.58608e-07 272.125 
-0.81 -0.29 -3.29109 3.32003 0.00915568 0.00871377 -6.58281e-05 0.00894145 1.57998e-07 271.76 
-0.89 -0.27 -1.79551 3.80928 0.00912791 0.00870023 -8.84738e-05 0.00893093 1.57681e-07 271.986 
-0.97 -0.25 -0.481321 3.76606 0.00909374 0.00872197 -0.000110747 0.00891878 1.57637e-07 271.692 
-0.83 -0.29 -2.87968 3.50315 0.00914629 0.00871923 -6.97332e-05 0.00894238 1.57823e-07 272.09 
-0.91 -0.27 -1.42464 3.8875 0.00912857 0.00870735 -8.83631e-05 0.00893152 1.57687e-07 271.994 
-0.99 -0.25 -0.210161 3.79592 0.00909581 0.0087608 -0.000118662 0.00894102 1.58007e-07 271.731 
-0.79 -0.29 -3.61429 3.202 0.0091679 0.00872285 -6.06805e-05 0.00895274 1.58162e-07 271.822 
-0.87 -0.27 -2.32872 3.95711 0.00913313 0.00870775 -7.30439e-05 0.0089389 1.57877e-07 271.891 
-0.95 -0.25 -0.714288 3.78272 0.00910407 0.00871877 -0.000104921 0.00892822 1.57788e-07 271.72 
-0.77 -0.29 -3.95585 3.23448 0.00917978 0.00873974 -5.06138e-05 0.00897073 1.58453e-07 271.867 
-0.85 -0.27 -2.66572 3.69807 0.00914357 0.00870902 -7.24216e-05 0.00893763 1.57873e-07 271.859 
-0.93 -0.25 -1.15314 4.1001 0.00910375 0.00870611 -0.000110406 0.00892104 1.57616e-07 271.798 
-0.75 -0.29 -4.41754 3.21434 0.00918368 0.00876268 -5.76652e-05 0.00898699 1.58657e-07 272.01 
-0.83 -0.27 -3.06292 3.69186 0.00915427 0.00872458 -7.20089e-05 0.00895098 1.58039e-07 271.98 
-0.91 -0.25 -1.51222 4.25546 0.00911523 0.00869623 -9.87623e-05 0.00892054 1.57578e-07 271.848 
-0.99 -0.23 -0.0599994 4.0885 0.00906176 0.00874629 -0.00012714 0.00891983 1.57597e-07 271.793 
-0.81 -0.27 -3.45613 3.71933 0.00915745 0.00871084 -7.95126e-05 0.00894502 1.5803e-07 271.815 
-0.89 -0.25 -2.00983 4.1673 0.00912669 0.00869398 -8.6098e-05 0.00893104 1.57655e-07 272.034 
-0.97 -0.23 -0.346872 4.03791 0.00908442 0.00872903 -0.000120661 0.00891963 1.57657e-07 271.683 
-0.79 -0.27 -4.0289 3.65039 0.00916901 0.00871127 -7.13225e-05 0.00894528 1.58231e-07 271.476 
-0.87 -0.25 -2.17453 4.31716 0.00913866 0.00870334 -8.67143e-05 0.00894127 1.5799e-07 271.768 
-0.95 -0.23 -0.865064 4.25184 0.00909202 0.00870961 -0.000120612 0.00891468 1.5752e-07 271.769 
-0.77 -0.27 -4.33217 3.59578 0.00917695 0.00874142 -6.20983e-05 0.00897251 1.58568e-07 271.725 
-0.85 -0.25 -2.65518 4.11637 0.0091536 0.00871159 -8.79259e-05 0.00894541 1.57917e-07 272.02 
-0.93 -0.23 -1.16736 4.46338 0.00910746 0.00870514 -0.000111932 0.0089226 1.57529e-07 271.995 
-0.83 -0.25 -3.11267 4.06043 0.00916309 0.0087118 -8.27054e-05 0.00894155 1.58125e-07 271.545 
-0.91 -0.23 -1.52534 4.49884 0.00910971 0.00868182 -0.000103698 0.00891976 1.57452e-07 272.042 
-0.99 -0.21 -0.0247707 4.2204 0.00909142 0.00874528 -0.000133813 0.00893108 1.57886e-07 271.637 
-0.81 -0.25 -3.34236 4.20931 0.009167 0.00872478 -7.58513e-05 0.00895547 1.58256e-07 271.744 
-0.89 -0.23 -1.925 4.79984 0.00912235 0.00869072 -0.000101054 0.00892519 1.57598e-07 271.955 
-0.97 -0.21 -0.190868 4.39344 0.00909622 0.00870967 -0.00013162 0.00891389 1.57595e-07 271.615 
-0.79 -0.25 -3.79057 4.1939 0.00915277 0.00870157 -7.85809e-05 0.00893707 1.58086e-07 271.477 
-0.87 -0.23 -2.47972 4.4979 0.00913658 0.00870324 -0.000103649 0.00893368 1.57832e-07 271.81 
-0.95 -0.21 -0.51136 4.68968 0.00910395 0.00871265 -0.000123639 0.00892343 1.57562e-07 271.963 
-0.77 -0.25 -4.32921 3.82284 0.00916091 0.00873276 -7.85486e-05 0.00895436 1.58286e-07 271.658 
-0.85 -0.23 -2.68956 4.64717 0.00914046 0.00870805 -9.03534e-05 0.0089324 1.57812e-07 271.805 
-0.93 -0.21 -1.10779 4.82834 0.00910374 0.00869241 -0.000119703 0.00891468 1.57603e-07 271.625 
-0.83 -0.23 -3.11517 4.44859 0.00913385 0.00870125 -8.45852e-05 0.0089259 1.57794e-07 271.639 
-0.91 -0.21 -1.41525 4.78888 0.00911513 0.00868145 -0.000114656 0.0089184 1.57561e-07 271.813 
-0.99 -0.19 -0.217028 4.44208 0.00907839 0.00873584 -0.000148201 0.00892141 1.57663e-07 271.727 
-0.81 -0.23 -3.59043 4.44243 0.00914402 0.00871616 -8.12832e-05 0.00894307 1.57988e-07 271.827 
-0.89 -0.21 -1.75652 5.28911 0.00912696 0.00869501 -0.000113394 0.00893306 1.57702e-07 272.015 
-0.97 -0.19 -0.60039 4.74952 0.00908734 0.00870288 -0.000138059 0.00890518 1.57497e-07 271.519 
-0.79 -0.23 -3.77576 4.64031 0.00916559 0.00871138 -7.97902e-05 0.00895138 1.58171e-07 271.765 
-0.87 -0.21 -2.13978 4.95464 0.00913043 0.0086852 -0.000110115 0.00892456 1.57811e-07 271.569 
-0.95 -0.19 -0.839937 4.98999 0.00910114 0.00870863 -0.000130662 0.00891396 1.57536e-07 271.72 
-0.77 -0.23 -4.11732 4.35071 0.00916931 0.0087341 -8.97383e-05 0.00896287 1.58388e-07 271.741 
-0.85 -0.21 -2.75182 4.99681 0.00914076 0.00869659 -9.53969e-05 0.00893319 1.57808e-07 271.837 
-0.93 -0.19 -0.88241 5.24858 0.00911056 0.00868896 -0.000123819 0.00891718 1.57598e-07 271.711 
-0.75 -0.23 -4.62563 4.04607 0.00917805 0.00874978 -8.67618e-05 0.00897362 1.58465e-07 271.934 
-0.83 -0.21 -3.15967 4.82444 0.00915881 0.00870494 -9.25075e-05 0.00894357 1.57914e-07 271.969 
-0.91 -0.19 -1.40659 5.27035 0.00910953 0.00867347 -0.000123545 0.00890754 1.57438e-07 271.693 
-0.81 -0.21 -3.44675 4.77943 0.00915873 0.00871338 -8.58823e-05 0.00895309 1.58241e-07 271.696 
-0.89 -0.19 -1.8961 5.63421 0.00911566 0.00868948 -0.000116687 0.00892073 1.57552e-07 271.898 
-0.79 -0.21 -3.80671 5.02711 0.00915068 0.00871162 -9.21812e-05 0.00894597 1.58186e-07 271.575 
-0.87 -0.19 -2.35934 5.38621 0.00911578 0.00868201 -0.000108368 0.00891634 1.57631e-07 271.628 
-0.77 -0.21 -4.28414 4.80243 0.00916229 0.00874042 -9.47702e-05 0.00896061 1.58372e-07 271.7 
-0.85 -0.19 -2.59555 5.37394 0.00912098 0.0086854 -0.000113187 0.00892084 1.57734e-07 271.588 
-0.75 -0.21 -4.6704 4.3917 0.00916582 0.00874136 -9.49071e-05 0.0089667 1.5843e-07 271.785 
-0.83 -0.19 -2.91076 5.19233 0.00912142 0.00869997 -0.000103887 0.00892687 1.57755e-07 271.736 
-0.81 -0.19 -3.29877 5.21163 0.00914292 0.00869995 -9.76968e-05 0.00893391 1.57909e-07 271.685 
-0.79 -0.19 -3.88129 5.32875 0.00916354 0.0087299 -9.66687e-05 0.00896257 1.58307e-07 271.87 
-0.77 -0.19 -4.10781 5.29987 0.00917173 0.00873674 -0.000104612 0.00896716 1.58461e-07 271.745 
-0.99 -0.33 -0.107936 2.48294 0.00909843 0.00877452 -8.43203e-05 0.00894823 1.58011e-07 271.943 
-0.97 -0.33 -0.420358 2.48325 0.00911074 0.00874869 -8.03826e-05 0.00894112 1.57847e-07 272.011 
-0.91 -0.33 -1.64716 2.84461 0.00914568 0.00872757 -6.42785e-05 0.00893885 1.57779e-07 272.058 
-0.99 -0.31 -0.161636 2.8024 0.00908453 0.00876184 -9.38454e-05 0.00893498 1.57782e-07 271.935 
-0.97 -0.31 -0.357552 2.76572 0.00909731 0.00874753 -8.65073e-05 0.00893449 1.57945e-07 271.641 
-0.87 -0.33 -2.25859 2.7714 0.00914952 0.00872464 -6.38921e-05 0.00894652 1.57947e-07 272.003 
-0.95 -0.31 -0.901238 3.07654 0.00910509 0.00872838 -8.62948e-05 0.00892937 1.57643e-07 272.004 
-0.85 -0.33 -2.3717 2.67899 0.00914322 0.00871069 -5.46736e-05 0.00893786 1.57696e-07 272.172 
-0.93 -0.31 -1.23075 3.09954 0.00912383 0.00873179 -8.31756e-05 0.00894081 1.57846e-07 272.003 
-0.91 -0.31 -1.48944 3.06181 0.00913668 0.00871621 -7.13449e-05 0.00894428 1.57731e-07 272.308 
-0.99 -0.29 -0.147906 3.09211 0.00908069 0.00876565 -0.000102158 0.00893872 1.57874e-07 271.891 
-0.81 -0.33 -3.45837 2.49563 0.0091586 0.00872364 -5.0509e-05 0.00895606 1.58135e-07 271.969 
-0.89 -0.31 -1.72628 3.05666 0.00914054 0.00871914 -6.06516e-05 0.00894626 1.57867e-07 272.133 
-0.97 -0.29 -0.539261 3.15835 0.00909135 0.00873568 -0.000100438 0.00892602 1.57634e-07 271.918 
-0.87 -0.31 -2.16851 3.06001 0.00914494 0.00872329 -6.32261e-05 0.00894163 1.57938e-07 271.87 
-0.95 -0.29 -0.732458 3.36934 0.00910568 0.00872521 -9.71114e-05 0.00892961 1.57612e-07 272.066 
-0.85 -0.31 -2.54941 2.85641 0.00914825 0.00870523 -5.98484e-05 0.00893855 1.5784e-07 271.944 
-0.93 -0.29 -1.06309 3.28538 0.00910704 0.00872435 -8.79358e-05 0.0089245 1.5753e-07 272.052 
-0.83 -0.31 -2.79686 3.22186 0.00915621 0.0087204 -5.39556e-05 0.00895152 1.5799e-07 272.081 
-0.91 -0.29 -1.2676 3.47973 0.00910454 0.00870446 -8.11408e-05 0.00891413 1.57414e-07 271.935 
-0.99 -0.27 -0.0931 3.42821 0.00909483 0.00876223 -0.000113051 0.00894535 1.58086e-07 271.729 
-0.81 -0.31 -3.13856 2.94015 0.00915726 0.00871527 -5.96385e-05 0.00895318 1.58074e-07 271.987 
-0.89 -0.29 -1.68553 3.4677 0.00912083 0.00871349 -7.75688e-05 0.00892998 1.57641e-07 272.027 
-0.97 -0.27 -0.488936 3.44361 0.00909735 0.00873232 -0.000110014 0.00893041 1.57718e-07 271.907 
-0.79 -0.31 -3.63445 2.74231 0.00916066 0.00873063 -5.33856e-05 0.00895608 1.5827e-07 271.737 
-0.87 -0.29 -2.10644 3.46725 0.00913452 0.008717 -6.05033e-05 0.00893787 1.57865e-07 271.881 
-0.95 -0.27 -0.690689 3.63662 0.00909947 0.00871767 -0.000102197 0.00892307 1.57555e-07 271.964 
-0.77 -0.31 -4.14854 2.88711 0.00916096 0.00873972 -5.10823e-05 0.00895308 1.58248e-07 271.684 
-0.85 -0.29 -2.65056 3.30684 0.00914135 0.00870611 -6.48403e-05 0.00893225 1.57811e-07 271.802 
-0.93 -0.27 -0.966426 3.59578 0.00911187 0.0087121 -9.33186e-05 0.00892019 1.5735e-07 272.23 
-0.95 -0.33 -0.703467 2.55066 0.00911991 0.00873006 -7.0738e-05 0.0089374 1.57816e-07 271.951 
-0.93 -0.33 -1.11723 2.69813 0.00913264 0.00873668 -6.45978e-05 0.00894062 1.57849e-07 271.991 
-0.89 -0.33 -2.1219 2.70798 0.00915359 0.00872139 -5.81462e-05 0.00894393 1.5783e-07 272.126 
-0.83 -0.33 -2.85473 2.73759 0.00914707 0.00871183 -5.55352e-05 0.00894543 1.57921e-07 272.014 
-0.75 -0.31 -4.445 2.82584 0.00916793 0.0087598 -4.71887e-05 0.00897739 1.58429e-07 272.11 
-0.75 -0.27 -4.50998 3.63419 0.00919136 0.00876104 -6.46303e-05 0.00898526 1.58671e-07 271.935 
-0.75 -0.25 -4.56984 3.77905 0.00917535 0.00876169 -7.00661e-05 0.00897357 1.58495e-07 271.882 
-0.75 -0.19 -4.44777 4.75365 0.00916814 0.00873729 -9.66821e-05 0.0089665 1.58474e-07 271.704 
-0.79 -0.33 -3.67667 2.28887 0.00915696 0.00873419 -5.05352e-05 0.00895752 1.58268e-07 271.785 
-0.75 -0.33 -4.34917 2.53492 0.00917063 0.00876698 -3.51686e-05 0.00897765 1.58572e-07 271.873 
-0.81 -0.17 -3.59989 5.66097 0.00912774 0.00869112 -0.000113523 0.00892028 1.5772e-07 271.596 
-0.79 -0.17 -3.87795 5.79201 0.00913999 0.00873545 -0.00011302 0.00895395 1.58166e-07 271.852 
-0.75 -0.17 -4.50325 5.38584 0.00916052 0.00874022 -0.00010404 0.00896162 1.58259e-07 271.925 
-0.73 -0.31 -4.80826 2.88454 0.0091875 0.008779 -4.59402e-05 0.00899447 1.58767e-07 272.048 
-0.73 -0.29 -4.71571 3.20446 0.00918391 0.00877051 -5.3258e-05 0.00898878 1.58729e-07 271.941 
-0.73 -0.27 -4.92161 3.36578 0.00920249 0.00877725 -6.83895e-05 0.00899938 1.58881e-07 272.001 
-0.73 -0.25 -4.72172 3.74423 0.00918133 0.00877022 -6.80307e-05 0.00898327 1.58767e-07 271.709 
-0.73 -0.23 -4.95685 4.09211 0.00918858 0.00877282 -7.42822e-05 0.00898846 1.58833e-07 271.753 
-0.73 -0.21 -4.91491 4.31139 0.00918268 0.00876898 -9.48062e-05 0.00898395 1.58638e-07 271.951 
-0.73 -0.19 -4.92866 4.73757 0.0091666 0.00877544 -9.94545e-05 0.00897882 1.5865e-07 271.774 
-0.79 -0.05 -3.26526 7.65832 0.00905783 0.00871261 -0.000152281 0.00889925 1.57496e-07 271.341 
-0.87 -0.03 -2.19144 8.36661 0.00900479 0.00862725 -0.000177694 0.00883756 1.56376e-07 271.39 
-0.83 -0.05 -2.71521 7.95044 0.00903839 0.00867211 -0.000154889 0.00887788 1.57012e-07 271.523 
-0.91 -0.03 -1.68252 8.25564 0.00899334 0.00862452 -0.000189738 0.00883222 1.56241e-07 271.459 
-0.81 -0.05 -2.87885 7.69855 0.00905308 0.00869859 -0.000145342 0.00889476 1.57349e-07 271.457 
-0.89 -0.03 -1.85612 8.43008 0.00899757 0.0086319 -0.000177908 0.008835 1.56315e-07 271.417 
-0.77 -0.05 -3.63503 7.26501 0.00906865 0.00872841 -0.00015339 0.0089141 1.57629e-07 271.564 
-0.85 -0.03 -2.49366 8.16102 0.00901022 0.00864879 -0.000175449 0.00885315 1.56623e-07 271.439 
-0.75 -0.05 -3.86736 7.08313 0.00907563 0.00875445 -0.000161244 0.00892292 1.57747e-07 271.629 
-0.83 -0.03 -2.73789 8.30936 0.00902293 0.00866551 -0.000162694 0.00886542 1.56896e-07 271.342 
-0.81 -0.03 -3.16612 7.95319 0.00903164 0.00869376 -0.00015867 0.00887935 1.57106e-07 271.406 
-0.79 -0.03 -3.22531 8.03612 0.00904724 0.00871459 -0.000157556 0.0088949 1.57408e-07 271.36 
-0.77 -0.03 -3.60206 7.53983 0.00905853 0.00873538 -0.000162442 0.00890636 1.5754e-07 271.481 
-0.95 -0.17 -0.812113 5.15157 0.0090783 0.00869032 -0.000144262 0.00889642 1.57339e-07 271.524 
-0.99 -0.15 -0.143989 4.95716 0.00903239 0.008707 -0.000176191 0.00889005 1.57193e-07 271.583 
-0.89 -0.17 -1.98603 5.85671 0.00910594 0.00867499 -0.000121427 0.00890725 1.5734e-07 271.853 
-0.97 -0.15 -0.396698 5.5518 0.0090528 0.00870093 -0.000165198 0.00889158 1.57213e-07 271.594 
-0.95 -0.15 -0.918956 5.68752 0.00906465 0.00867441 -0.000153757 0.00888269 1.57127e-07 271.472 
-0.93 -0.15 -1.33036 5.88913 0.00907493 0.00866893 -0.000139195 0.00888757 1.57273e-07 271.369 
-0.83 -0.17 -3.11188 5.60846 0.00912658 0.0087056 -0.000107677 0.00892988 1.57751e-07 271.835 
-0.91 -0.15 -1.56056 6.18892 0.00909342 0.00867763 -0.000137229 0.00890245 1.57309e-07 271.761 
-0.99 -0.13 -0.205094 5.31043 0.00904687 0.00870762 -0.000188709 0.0088913 1.57236e-07 271.545 
-0.89 -0.15 -1.78214 6.23972 0.00909333 0.00866307 -0.000130145 0.00889414 1.57208e-07 271.68 
-0.97 -0.13 -0.497581 5.92467 0.00905428 0.00868044 -0.000171835 0.00888414 1.57197e-07 271.395 
-0.87 -0.15 -2.41575 6.07726 0.00909653 0.0086824 -0.000123552 0.00890923 1.57334e-07 271.923 
-0.95 -0.13 -0.905039 6.11528 0.00906381 0.0086637 -0.000164402 0.00887932 1.57115e-07 271.388 
-0.77 -0.17 -4.17601 5.28729 0.00915284 0.00872928 -0.000106215 0.00895776 1.58236e-07 271.846 
-0.85 -0.15 -2.71464 6.2624 0.00910596 0.00867674 -0.000115619 0.00890778 1.57502e-07 271.591 
-0.93 -0.13 -1.13955 6.18659 0.00907819 0.0086683 -0.000158311 0.00889243 1.57121e-07 271.779 
-0.83 -0.15 -3.03144 5.97437 0.00912062 0.00869917 -0.000120197 0.00892484 1.57744e-07 271.693 
-0.91 -0.13 -1.68878 6.51728 0.00907901 0.00866183 -0.000148959 0.00889307 1.5728e-07 271.524 
-0.99 -0.11 -0.129508 5.5642 0.00904141 0.00869479 -0.000186462 0.0088832 1.56997e-07 271.712 
-0.81 -0.15 -3.36763 6.1098 0.0091294 0.00870581 -0.000119276 0.00893253 1.57834e-07 271.773 
-0.89 -0.13 -2.00158 6.58094 0.00908967 0.00866235 -0.000134252 0.00889353 1.57338e-07 271.438 
-0.97 -0.11 -0.495546 6.27208 0.0090363 0.00866827 -0.000182141 0.00887367 1.56905e-07 271.58 
-0.79 -0.15 -3.85636 5.9316 0.00913053 0.00872314 -0.000121686 0.00894604 1.5812e-07 271.69 
-0.87 -0.13 -2.34093 6.60004 0.00909898 0.008668 -0.000129897 0.00890289 1.57453e-07 271.525 
-0.95 -0.11 -0.78603 6.42685 0.0090463 0.00866281 -0.000173332 0.00887314 1.57026e-07 271.354 
-0.77 -0.15 -4.11377 5.71863 0.00913366 0.00872727 -0.000112445 0.00894644 1.58257e-07 271.467 
-0.85 -0.13 -2.66385 6.37217 0.00911576 0.00868199 -0.000126542 0.00890977 1.57538e-07 271.589 
-0.93 -0.11 -1.21548 6.69255 0.00905688 0.00865722 -0.000167351 0.00887469 1.571e-07 271.273 
-0.75 -0.15 -4.45906 5.62529 0.00914224 0.00874025 -0.000111474 0.00895661 1.58355e-07 271.608 
-0.83 -0.13 -2.99449 6.483 0.00912331 0.00869492 -0.000129056 0.00892093 1.57462e-07 272.06 
-0.91 -0.11 -1.47335 6.8825 0.00906213 0.00864943 -0.000156889 0.00887671 1.57085e-07 271.36 
-0.99 -0.09 -0.0953653 5.81803 0.00899905 0.00868269 -0.000201525 0.0088547 1.56649e-07 271.441 
-0.81 -0.13 -3.52456 6.40509 0.00911786 0.00870436 -0.000121524 0.00892643 1.57894e-07 271.483 
-0.89 -0.11 -1.82615 6.92905 0.0090765 0.00865438 -0.000145368 0.00888309 1.57356e-07 271.088 
-0.97 -0.09 -0.387377 6.73215 0.00902432 0.00865968 -0.000189108 0.00886325 1.56824e-07 271.4 
-0.79 -0.13 -3.61936 6.39561 0.0091234 0.00871821 -0.000121247 0.00893548 1.5791e-07 271.73 
-0.87 -0.11 -2.21984 6.98802 0.00908887 0.00866486 -0.000143931 0.00889792 1.57418e-07 271.434 
-0.95 -0.09 -0.784068 6.80404 0.00903712 0.00865815 -0.000180322 0.00887172 1.5694e-07 271.46 
-0.77 -0.13 -4.04206 6.04667 0.00912479 0.0087216 -0.000119386 0.00893457 1.57991e-07 271.565 
-0.85 -0.11 -2.64033 6.80136 0.00909442 0.00867971 -0.000134391 0.0089001 1.57524e-07 271.318 
-0.93 -0.09 -1.10583 6.89344 0.0090421 0.00864886 -0.000176033 0.00886743 1.57146e-07 270.972 
-0.83 -0.11 -3.10764 7.00169 0.0090929 0.008684 -0.000127353 0.00890526 1.57518e-07 271.486 
-0.91 -0.09 -1.33871 7.24592 0.00904469 0.00863662 -0.000158709 0.00886111 1.56906e-07 271.193 
-0.99 -0.07 -0.32184 6.21982 0.0090035 0.00867484 -0.00020659 0.00885713 1.56622e-07 271.563 
-0.81 -0.11 -3.41732 6.56584 0.00910576 0.00870748 -0.000126978 0.00891831 1.57527e-07 271.868 
-0.89 -0.09 -1.86714 7.37943 0.00905011 0.0086509 -0.000160197 0.0088723 1.57121e-07 271.164 
-0.97 -0.07 -0.557478 6.88932 0.00899593 0.00864945 -0.000205803 0.00884405 1.56448e-07 271.464 
-0.79 -0.11 -3.59502 6.6951 0.00911238 0.00871413 -0.000128831 0.00892942 1.57946e-07 271.484 
-0.87 -0.09 -2.17075 7.35629 0.00906405 0.00865587 -0.000155358 0.00888214 1.5732e-07 271.122 
-0.95 -0.07 -0.722675 7.07674 0.00900046 0.00865002 -0.000190403 0.00884515 1.56452e-07 271.491 
-0.77 -0.11 -3.94812 6.27782 0.00912698 0.00871948 -0.000131726 0.00893663 1.58014e-07 271.587 
-0.85 -0.09 -2.53379 7.24254 0.00907218 0.00867005 -0.0001437 0.0088864 1.57287e-07 271.309 
-0.93 -0.07 -1.11611 7.3196 0.00901032 0.00863173 -0.00017952 0.00884584 1.56688e-07 271.102 
-0.75 -0.11 -4.39747 6.04237 0.00914161 0.00875294 -0.000130897 0.00895591 1.58294e-07 271.69 
-0.83 -0.09 -2.78758 7.22289 0.00908768 0.00868051 -0.000139816 0.0089015 1.57358e-07 271.647 
-0.91 -0.07 -1.54106 7.62093 0.00902807 0.00863238 -0.000171874 0.00885152 1.56671e-07 271.307 
-0.99 -0.05 -0.0288519 6.60962 0.00898363 0.00866503 -0.000216338 0.00883778 1.56366e-07 271.413 
-0.81 -0.09 -3.21284 7.03321 0.00909757 0.00871164 -0.000138212 0.00891697 1.57723e-07 271.489 
-0.89 -0.07 -1.79311 7.72174 0.00904248 0.00865046 -0.000173112 0.00886783 1.56961e-07 271.303 
-0.97 -0.05 -0.576764 7.09259 0.00900219 0.00864637 -0.000208497 0.00884495 1.56467e-07 271.458 
-0.79 -0.09 -3.60654 6.85259 0.00910129 0.00871811 -0.000132946 0.00892577 1.57822e-07 271.587 
-0.87 -0.07 -2.22074 7.77023 0.00904118 0.00864189 -0.000157024 0.00886175 1.56792e-07 271.41 
-0.95 -0.05 -0.781459 7.43614 0.00900489 0.00863676 -0.000197273 0.00883961 1.56355e-07 271.488 
-0.77 -0.09 -3.85183 6.80858 0.00909721 0.0087192 -0.000133085 0.00892638 1.57862e-07 271.536 
-0.85 -0.07 -2.52508 7.49656 0.00904815 0.00865959 -0.000154182 0.00887504 1.5697e-07 271.509 
-0.93 -0.05 -1.13627 7.73354 0.00900405 0.0086215 -0.000182496 0.0088354 1.56399e-07 271.284 
-0.75 -0.09 -4.20243 6.46903 0.00909227 0.00874553 -0.000139655 0.00893382 1.57944e-07 271.622 
-0.83 -0.07 -2.88132 7.69103 0.00905499 0.00868371 -0.000144749 0.00888337 1.57072e-07 271.587 
-0.91 -0.05 -1.43471 7.98394 0.00900862 0.0086329 -0.000181799 0.00884078 1.5648e-07 271.307 
-0.99 -0.03 -0.205651 6.92463 0.00895186 0.00865608 -0.000230456 0.00881698 1.55954e-07 271.49 
-0.81 -0.07 -3.19581 7.54569 0.00905411 0.00870037 -0.000148144 0.00889527 1.57311e-07 271.538 
-0.89 -0.05 -1.78125 8.06181 0.00900893 0.00863794 -0.000175109 0.00884478 1.56593e-07 271.235 
-0.97 -0.03 -0.45162 7.51785 0.00895698 0.00862819 -0.000212038 0.00881381 1.56087e-07 271.161 