ITEM: TIMESTEP
923000
ITEM: NUMBER OF CELLS
5000
ITEM: BOX BOUNDS ss ss pp
-1 1
-0.5 0.5
-0.5 0.5
ITEM: CELLS xc yc f_U[*] f_V[*] f_Tau[1] f_Tau[2] f_Tau[3] f_Press[*] f_Mrho[*] f_Ttra[*] 
-0.99 -0.49 -0.199782 0.326406 0.00898763 0.00875436 -3.3685e-05 0.00888074 1.56641e-07 272.254 
-0.97 -0.49 -0.664304 0.0839561 0.00898499 0.00875837 -3.27792e-05 0.00888052 1.56655e-07 272.223 
-0.95 -0.49 -0.777915 0.0217676 0.00898812 0.00875031 -3.37374e-05 0.00887747 1.56671e-07 272.102 
-0.93 -0.49 -0.98681 0.157305 0.00899659 0.00875714 -2.66216e-05 0.00888446 1.56811e-07 272.072 
-0.91 -0.49 -1.30097 0.0455321 0.00900606 0.00873013 -2.0651e-05 0.00886946 1.56754e-07 271.712 
-0.99 -0.47 -0.165998 0.596145 0.00901534 0.00877802 -1.94887e-05 0.00890714 1.57093e-07 272.278 
-0.89 -0.49 -1.64943 0.238251 0.00902538 0.00874264 -2.45264e-05 0.00888694 1.56813e-07 272.145 
-0.97 -0.47 -0.304302 0.422177 0.0090136 0.00875407 -3.93684e-05 0.00889608 1.56793e-07 272.46 
-0.87 -0.49 -1.84358 0.0205205 0.00904489 0.00877089 -1.37466e-05 0.00890542 1.57122e-07 272.175 
-0.95 -0.47 -0.711464 0.381567 0.00903017 0.00875653 -3.53414e-05 0.00890263 1.56927e-07 272.428 
-0.85 -0.49 -2.03256 0.163371 0.00904763 0.00875057 -6.09561e-06 0.00889507 1.56787e-07 272.44 
-0.93 -0.47 -1.00941 0.271127 0.00903103 0.00874562 -3.54289e-05 0.00889064 1.568e-07 272.281 
-0.83 -0.49 -2.04053 -0.109662 0.00905616 0.00876625 1.57247e-06 0.00891549 1.57144e-07 272.444 
-0.91 -0.47 -1.30063 0.692608 0.00903791 0.00873454 -3.07594e-05 0.00889036 1.56881e-07 272.131 
-0.99 -0.45 -0.157181 0.911443 0.00905566 0.00878293 -3.19692e-05 0.00892849 1.57381e-07 272.431 
-0.81 -0.49 -2.2067 0.241043 0.0090591 0.00877065 8.22646e-06 0.00892305 1.57411e-07 272.213 
-0.89 -0.47 -1.74292 0.413667 0.00903951 0.0087421 -3.51224e-05 0.00889007 1.56903e-07 272.085 
-0.97 -0.45 -0.427872 0.658089 0.00906308 0.00876851 -3.92855e-05 0.00892343 1.57215e-07 272.564 
-0.79 -0.49 -2.48725 0.0431993 0.00906444 0.00877414 1.79005e-05 0.00892854 1.57404e-07 272.392 
-0.87 -0.47 -2.00406 0.19232 0.00904238 0.00874981 -2.42918e-05 0.00890663 1.56938e-07 272.531 
-0.95 -0.45 -0.695064 0.795222 0.00905336 0.00874764 -4.13699e-05 0.00890523 1.56904e-07 272.547 
-0.77 -0.49 -2.51204 0.0038255 0.00907178 0.00879923 3.09667e-05 0.00894794 1.57678e-07 272.51 
-0.85 -0.47 -2.10886 0.240856 0.00905429 0.00875225 -1.33772e-05 0.0089076 1.56985e-07 272.478 
-0.93 -0.45 -1.13191 0.529865 0.00906492 0.00873895 -4.24221e-05 0.00890707 1.57138e-07 272.198 
-0.83 -0.47 -2.37708 0.133544 0.00906097 0.00875379 -9.50269e-06 0.00891644 1.5712e-07 272.516 
-0.91 -0.45 -1.32828 0.879791 0.00906754 0.00874223 -3.46859e-05 0.00890534 1.57169e-07 272.091 
-0.99 -0.43 -0.162874 1.22948 0.0090827 0.00878446 -3.96637e-05 0.00894392 1.57839e-07 272.11 
-0.81 -0.47 -2.52883 0.458999 0.00907283 0.0087638 -4.59817e-07 0.00893168 1.5748e-07 272.356 
-0.89 -0.45 -1.68313 0.753634 0.00907769 0.00873335 -3.6536e-05 0.00890129 1.57137e-07 272.022 
-0.97 -0.43 -0.452492 0.924173 0.00908527 0.00877154 -3.46576e-05 0.0089382 1.57544e-07 272.444 
-0.79 -0.47 -2.89408 0.287496 0.00908341 0.00875807 1.15805e-05 0.00893785 1.57693e-07 272.177 
-0.87 -0.45 -2.00203 0.62074 0.00908155 0.00874069 -2.36669e-05 0.00891122 1.57057e-07 272.465 
-0.95 -0.43 -0.647489 0.906241 0.00908881 0.00874969 -4.40751e-05 0.00892409 1.57447e-07 272.183 
-0.77 -0.47 -3.19091 0.127549 0.00909932 0.0087949 1.5745e-05 0.00895446 1.5798e-07 272.188 
-0.85 -0.45 -2.38386 0.3663 0.00908888 0.00874081 -1.91322e-05 0.00892068 1.57234e-07 272.446 
-0.93 -0.43 -0.881591 1.06769 0.00909113 0.00874352 -4.27765e-05 0.00892213 1.57402e-07 272.2 
-0.75 -0.47 -3.33645 0.333875 0.00910545 0.0088124 1.93489e-05 0.00896529 1.57847e-07 272.746 
-0.83 -0.45 -2.61734 0.36379 0.00909677 0.00875757 -1.55303e-05 0.00893493 1.576e-07 272.249 
-0.91 -0.43 -1.49006 1.00563 0.0090876 0.00873684 -4.4455e-05 0.00891057 1.57193e-07 272.21 
-0.99 -0.41 -0.221021 1.59827 0.00908513 0.00877574 -4.69709e-05 0.00893773 1.57782e-07 272.019 
-0.81 -0.45 -2.85411 0.748372 0.00909871 0.00874455 -1.11361e-05 0.00893321 1.57557e-07 272.27 
-0.89 -0.43 -1.49569 1.18021 0.00908127 0.00872111 -3.68867e-05 0.00890399 1.57163e-07 272.059 
-0.97 -0.41 -0.388738 1.04691 0.00910193 0.00877399 -4.85192e-05 0.00894162 1.57579e-07 272.488 
-0.79 -0.45 -3.05954 0.564418 0.00910681 0.00875468 5.10084e-07 0.00893698 1.57735e-07 272.077 
-0.87 -0.43 -1.8573 0.83411 0.00908875 0.00873887 -3.46357e-05 0.00892208 1.57354e-07 272.282 
-0.95 -0.41 -0.569168 1.26439 0.00910832 0.00875901 -4.12772e-05 0.00894173 1.5767e-07 272.334 
-0.77 -0.45 -3.44776 0.470208 0.00911629 0.00878655 6.7465e-06 0.00895551 1.57859e-07 272.428 
-0.85 -0.43 -2.05558 0.783162 0.00909867 0.00873499 -2.65549e-05 0.00892397 1.57443e-07 272.186 
-0.93 -0.41 -1.17873 1.56247 0.00909749 0.0087281 -4.12182e-05 0.00892102 1.57455e-07 272.075 
-0.75 -0.45 -3.70722 0.486134 0.00911977 0.00880546 1.54149e-05 0.008966 1.5817e-07 272.21 
-0.83 -0.43 -2.45284 0.773184 0.00910277 0.00875139 -1.67661e-05 0.00893443 1.5754e-07 272.336 
-0.91 -0.41 -1.32954 1.24234 0.00909949 0.00873605 -3.49781e-05 0.00892601 1.57644e-07 271.902 
-0.99 -0.39 -0.122524 1.84283 0.00908601 0.00878344 -5.28549e-05 0.00894763 1.57969e-07 271.999 
-0.81 -0.43 -3.04843 0.991858 0.00910945 0.00873933 -1.50206e-05 0.00893567 1.57652e-07 272.181 
-0.89 -0.41 -1.72794 1.3784 0.00910012 0.00873276 -3.95781e-05 0.00892275 1.5731e-07 272.379 
-0.97 -0.39 -0.595177 1.32489 0.00908813 0.00877012 -5.17009e-05 0.00893658 1.57719e-07 272.094 
-0.79 -0.43 -3.2144 0.817795 0.00911784 0.00874639 -9.02721e-06 0.0089424 1.57876e-07 272 
-0.87 -0.41 -2.05179 1.21592 0.00909816 0.00872742 -3.67058e-05 0.00892445 1.57289e-07 272.468 
-0.95 -0.39 -0.99508 1.5519 0.00908257 0.00874323 -4.56788e-05 0.00891577 1.57258e-07 272.255 
-0.77 -0.43 -3.52771 0.745509 0.00913168 0.00878364 9.80936e-08 0.00896816 1.58228e-07 272.176 
-0.85 -0.41 -2.57483 1.05533 0.0091004 0.00873814 -3.68815e-05 0.00893102 1.57638e-07 272.063 
-0.93 -0.39 -0.662335 1.80224 0.0090951 0.0087321 -3.50681e-05 0.00892301 1.57528e-07 272.01 
-0.83 -0.41 -2.76994 1.14568 0.00911438 0.0087375 -3.01066e-05 0.00893306 1.57644e-07 272.116 
-0.91 -0.39 -1.2117 1.83069 0.00909843 0.00873537 -4.47436e-05 0.00892688 1.57469e-07 272.23 
-0.99 -0.37 0.144132 2.0211 0.00908421 0.00879134 -5.9353e-05 0.0089517 1.58129e-07 271.847 
-0.81 -0.41 -2.86667 1.34307 0.00912446 0.00872981 -1.79322e-05 0.00893417 1.57719e-07 272.021 
-0.89 -0.39 -1.47779 1.50154 0.00910992 0.00873607 -4.74321e-05 0.00893769 1.57618e-07 272.301 
-0.97 -0.37 -0.225508 2.00384 0.00909285 0.00875702 -5.77106e-05 0.00893897 1.57669e-07 272.252 
-0.79 -0.41 -3.25209 1.01291 0.00913877 0.00875008 -1.71801e-05 0.00895629 1.58097e-07 272.042 
-0.87 -0.39 -1.73145 1.55974 0.00912367 0.00872097 -4.22474e-05 0.00893313 1.57538e-07 272.301 
-0.95 -0.37 -0.708649 1.66895 0.00910736 0.00874067 -5.06351e-05 0.00893063 1.57674e-07 271.99 
-0.77 -0.41 -3.68246 1.23521 0.00914231 0.0087742 -2.02086e-05 0.00897179 1.58363e-07 272.054 
-0.85 -0.39 -2.10356 1.54689 0.00913342 0.00874133 -3.97701e-05 0.00894481 1.58008e-07 271.845 
-0.93 -0.37 -1.31673 1.90008 0.00911686 0.00873298 -4.96527e-05 0.00893653 1.57663e-07 272.188 
-0.75 -0.41 -3.89983 1.05519 0.00916125 0.00879394 -8.68376e-06 0.00898814 1.58581e-07 272.176 
-0.83 -0.39 -2.61349 1.4206 0.0091298 0.0087265 -3.8478e-05 0.00893497 1.57771e-07 271.954 
-0.91 -0.37 -1.27914 2.04237 0.00913718 0.00873957 -5.79462e-05 0.00894834 1.57711e-07 272.465 
-0.99 -0.35 -0.225398 2.0648 0.00910248 0.00878225 -7.76253e-05 0.0089537 1.58169e-07 271.839 
-0.81 -0.39 -2.87824 1.39883 0.00913471 0.00872747 -3.44409e-05 0.00893874 1.57714e-07 272.168 
-0.89 -0.37 -1.62915 1.95251 0.00913878 0.00873304 -4.97694e-05 0.00894755 1.57827e-07 272.241 
-0.97 -0.35 -0.383015 2.45417 0.00911039 0.00875013 -6.41562e-05 0.00894117 1.57846e-07 272.013 
-0.79 -0.39 -3.19192 1.57268 0.0091439 0.00874142 -2.76864e-05 0.00895664 1.58094e-07 272.058 
-0.87 -0.37 -2.16897 1.98061 0.00913422 0.00871692 -5.11481e-05 0.00893633 1.57578e-07 272.329 
-0.95 -0.35 -0.688521 2.04902 0.00912172 0.00873433 -6.08382e-05 0.00893598 1.57766e-07 271.994 
-0.77 -0.39 -3.6916 1.58112 0.00915277 0.00877871 -2.01916e-05 0.00898143 1.58453e-07 272.192 
-0.85 -0.37 -2.52316 1.81628 0.00913987 0.00873705 -4.87952e-05 0.0089434 1.57851e-07 272.073 
-0.93 -0.35 -1.08386 2.33573 0.0091308 0.00873924 -6.62667e-05 0.00894699 1.5783e-07 272.219 
-0.83 -0.37 -2.79165 1.78746 0.00914866 0.00871824 -4.00284e-05 0.00893937 1.57815e-07 272.012 
-0.91 -0.35 -1.51773 2.3478 0.00912171 0.00873843 -5.50817e-05 0.00893193 1.57589e-07 272.175 
-0.81 -0.37 -3.23703 1.64419 0.00915773 0.00872439 -3.46322e-05 0.00895119 1.57909e-07 272.21 
-0.89 -0.35 -1.85616 2.40043 0.00912855 0.00872557 -5.58724e-05 0.00893279 1.57605e-07 272.174 
-0.79 -0.37 -3.62564 2.03322 0.00915699 0.00873976 -3.1725e-05 0.00896425 1.58314e-07 271.909 
-0.87 -0.35 -2.21699 2.2334 0.0091462 0.00872132 -5.28325e-05 0.00894177 1.57758e-07 272.184 
-0.77 -0.37 -3.89868 2.09108 0.00916333 0.00877354 -2.75144e-05 0.00897709 1.58439e-07 272.085 
-0.85 -0.35 -2.6367 2.32346 0.00915277 0.00872165 -5.01742e-05 0.00893869 1.57889e-07 271.865 
-0.83 -0.35 -3.05396 2.1443 0.00914976 0.00871757 -4.67873e-05 0.00893675 1.57806e-07 271.948 
-0.81 -0.35 -3.46169 2.15011 0.00915467 0.00872395 -4.83921e-05 0.00895134 1.58006e-07 272.048 
-0.79 -0.35 -3.71502 2.27066 0.00917489 0.00873404 -3.91398e-05 0.00896497 1.5833e-07 271.904 
-0.77 -0.35 -3.93326 2.38191 0.00918374 0.00876253 -3.22222e-05 0.00898171 1.58403e-07 272.287 
-0.75 -0.35 -4.15085 2.32071 0.00918735 0.00878143 -2.434e-05 0.00899534 1.58677e-07 272.229 
-0.75 -0.49 -2.66769 0.153672 0.00908608 0.0088082 2.668e-05 0.00894951 1.5782e-07 272.312 
-0.75 -0.43 -3.89764 0.756741 0.00914073 0.00879953 -6.75912e-07 0.00898203 1.58394e-07 272.312 
-0.75 -0.39 -4.50379 1.53782 0.00915502 0.00878097 -2.0758e-05 0.0089863 1.58554e-07 272.165 
-0.75 -0.37 -4.09875 2.04065 0.00916331 0.00877751 -2.11736e-05 0.00897891 1.58356e-07 272.282 
-0.77 -0.33 -3.90117 2.62405 0.00915944 0.00875151 -4.31993e-05 0.00895747 1.58269e-07 271.781 
-0.73 -0.49 -2.97376 0.20925 0.00908831 0.00882184 2.46187e-05 0.0089641 1.58086e-07 272.298 
-0.73 -0.47 -3.31151 0.185984 0.00911028 0.0088116 2.72451e-05 0.00897331 1.58134e-07 272.494 
-0.73 -0.45 -3.86489 0.281426 0.00912813 0.00880831 1.29168e-05 0.00897726 1.58325e-07 272.285 
-0.73 -0.43 -4.37373 0.835045 0.00915666 0.00880825 4.12488e-06 0.00899238 1.5856e-07 272.34 
-0.73 -0.41 -4.34088 1.103 0.00916366 0.00880556 -5.96908e-06 0.00899682 1.58666e-07 272.293 
-0.73 -0.39 -4.61974 1.49131 0.0091655 0.0088 -6.76547e-06 0.0089933 1.58611e-07 272.28 
-0.73 -0.37 -4.51791 1.71385 0.00916506 0.00878078 -2.36913e-05 0.00898266 1.58467e-07 272.205 
-0.73 -0.35 -4.48032 2.03079 0.00918383 0.00877969 -2.04998e-05 0.0089911 1.58634e-07 272.174 
-0.81 -0.29 -3.2812 3.31759 0.00915426 0.00871626 -6.63879e-05 0.00894404 1.57996e-07 271.843 
-0.89 -0.27 -1.76344 3.83714 0.00911924 0.00869844 -8.64205e-05 0.00892398 1.57472e-07 272.137 
-0.97 -0.25 -0.603341 3.68123 0.00909611 0.00872323 -0.000108611 0.00891998 1.57495e-07 271.974 
-0.83 -0.29 -2.9925 3.37186 0.00914584 0.00871997 -7.19717e-05 0.00894539 1.57784e-07 272.249 
-0.91 -0.27 -1.34145 3.86603 0.00911885 0.00870304 -8.86318e-05 0.0089277 1.57637e-07 271.965 
-0.99 -0.25 -0.271557 3.79477 0.00909073 0.0087463 -0.00011564 0.00893013 1.57784e-07 271.784 
-0.79 -0.29 -3.65142 3.23295 0.00917082 0.00872223 -6.08276e-05 0.00895314 1.58092e-07 271.954 
-0.87 -0.27 -2.35096 4.03143 0.00912336 0.00870561 -7.51171e-05 0.00893329 1.57739e-07 271.959 
-0.95 -0.25 -0.7755 3.83653 0.00910806 0.00872808 -0.000108408 0.00892868 1.57671e-07 271.936 
-0.77 -0.29 -4.07281 3.21823 0.00918661 0.00874697 -4.98625e-05 0.00897601 1.5863e-07 271.724 
-0.85 -0.27 -2.64181 3.64133 0.00914051 0.00871288 -7.43772e-05 0.00893525 1.57747e-07 272.004 
-0.93 -0.25 -1.12331 4.0073 0.00910161 0.00870328 -0.000106064 0.00891546 1.57426e-07 271.955 
-0.75 -0.29 -4.49935 3.11626 0.00918659 0.00876629 -5.26645e-05 0.00898833 1.58679e-07 272.013 
-0.83 -0.27 -3.02632 3.67052 0.00915177 0.00872376 -7.31302e-05 0.00895141 1.58085e-07 271.914 
-0.91 -0.25 -1.55254 4.19339 0.00911587 0.00869548 -9.76812e-05 0.00891711 1.57477e-07 271.917 
-0.99 -0.23 0.0404156 4.04429 0.00906937 0.00873827 -0.000128765 0.00891896 1.57517e-07 271.904 
-0.81 -0.27 -3.58815 3.6956 0.00915961 0.00871469 -8.27636e-05 0.00894795 1.58048e-07 271.872 
-0.89 -0.25 -2.11006 4.33148 0.00912753 0.00869126 -8.70828e-05 0.0089272 1.57508e-07 272.172 
-0.97 -0.23 -0.226758 3.94002 0.00908531 0.0087314 -0.000122102 0.00892324 1.57676e-07 271.761 
-0.79 -0.27 -4.08832 3.65183 0.00916905 0.00870815 -7.45309e-05 0.00894414 1.58126e-07 271.622 
-0.87 -0.25 -2.27165 4.26752 0.00914461 0.0087022 -8.55911e-05 0.00894334 1.57989e-07 271.834 
-0.95 -0.23 -0.736647 4.18579 0.00909136 0.00871131 -0.000118022 0.00891573 1.57404e-07 272.002 
-0.77 -0.27 -4.31378 3.61447 0.00917399 0.00874082 -6.23684e-05 0.00897129 1.58486e-07 271.828 
-0.85 -0.25 -2.57932 4.09769 0.00915464 0.00871374 -8.95535e-05 0.0089411 1.57854e-07 271.998 
-0.93 -0.23 -1.0283 4.33878 0.00910883 0.00870669 -0.000111499 0.00892081 1.57453e-07 272.071 
-0.83 -0.25 -3.06734 4.02417 0.00915817 0.00871386 -8.59671e-05 0.0089392 1.58182e-07 271.376 
-0.91 -0.23 -1.36511 4.66702 0.00911482 0.00868398 -0.000105402 0.00892078 1.57452e-07 272.073 
-0.99 -0.21 0.00552763 4.09355 0.00909252 0.00873557 -0.000134421 0.00892966 1.57822e-07 271.705 
-0.81 -0.25 -3.24636 4.22504 0.00915899 0.00872579 -7.83847e-05 0.00895131 1.58314e-07 271.517 
-0.89 -0.23 -1.87784 4.86292 0.00912218 0.00868262 -0.000100129 0.00891788 1.57503e-07 271.897 
-0.97 -0.21 -0.160979 4.28765 0.00910017 0.00870944 -0.000129627 0.00891949 1.57672e-07 271.653 
-0.79 -0.25 -3.80162 4.22675 0.00915108 0.00869693 -7.96732e-05 0.00893348 1.57976e-07 271.557 
-0.87 -0.23 -2.35534 4.51072 0.00913387 0.00870313 -0.000101834 0.0089297 1.57761e-07 271.811 
-0.95 -0.21 -0.456909 4.59274 0.00910802 0.00871663 -0.000124057 0.00892654 1.57492e-07 272.179 
-0.77 -0.25 -4.34276 3.79852 0.00916302 0.00873558 -8.1043e-05 0.00895576 1.5822e-07 271.813 
-0.85 -0.23 -2.72242 4.59748 0.00913907 0.00870956 -9.00448e-05 0.00892947 1.57757e-07 271.812 
-0.93 -0.21 -1.14573 4.79724 0.00910909 0.00869692 -0.000121833 0.00891474 1.57548e-07 271.723 
-0.83 -0.23 -3.12097 4.379 0.00913312 0.00870686 -8.11187e-05 0.00892813 1.57822e-07 271.658 
-0.91 -0.21 -1.46562 4.89237 0.00911545 0.0086765 -0.000110932 0.00891567 1.57542e-07 271.762 
-0.99 -0.19 -0.193515 4.23428 0.00907467 0.00872772 -0.000147517 0.00891787 1.57572e-07 271.776 
-0.81 -0.23 -3.50894 4.35327 0.00914639 0.00871684 -8.69942e-05 0.00894499 1.58064e-07 271.755 
-0.89 -0.21 -1.69082 5.40433 0.00913257 0.00869007 -0.00011133 0.00893461 1.57811e-07 271.875 
-0.97 -0.19 -0.633722 4.78585 0.009087 0.00870446 -0.000142359 0.00890244 1.5755e-07 271.345 
-0.79 -0.23 -3.58452 4.73737 0.00916572 0.00870893 -8.32883e-05 0.00894858 1.58207e-07 271.619 
-0.87 -0.21 -2.13898 5.00241 0.00913483 0.00868469 -0.000109689 0.00892531 1.57869e-07 271.491 
-0.95 -0.19 -0.938542 4.91953 0.00910167 0.0087159 -0.000131049 0.00891476 1.57533e-07 271.749 
-0.77 -0.23 -3.9383 4.29563 0.009168 0.00873542 -8.98328e-05 0.00896452 1.58356e-07 271.846 
-0.85 -0.21 -2.78872 5.0441 0.00914315 0.00870146 -9.15133e-05 0.00893623 1.57827e-07 271.897 
-0.93 -0.19 -0.961923 5.28737 0.00911174 0.00868803 -0.000122215 0.00891828 1.57692e-07 271.582 
-0.75 -0.23 -4.40619 3.96965 0.00917119 0.00874709 -9.00378e-05 0.00897303 1.58389e-07 272.048 
-0.83 -0.21 -3.20046 4.66159 0.0091614 0.00871446 -9.36349e-05 0.00894756 1.57954e-07 272.021 
-0.91 -0.19 -1.49542 5.2578 0.00911512 0.00866982 -0.000123151 0.00890556 1.5742e-07 271.664 
-0.81 -0.21 -3.45749 4.65928 0.0091562 0.00871241 -8.51542e-05 0.00895221 1.58296e-07 271.575 
-0.89 -0.19 -1.89795 5.69539 0.00912136 0.00868405 -0.000113297 0.00891599 1.57511e-07 271.824 
-0.79 -0.21 -3.77398 4.93036 0.00914747 0.00871011 -9.44591e-05 0.00894618 1.58172e-07 271.606 
-0.87 -0.19 -2.29052 5.42701 0.00912225 0.00868277 -0.00010528 0.00891707 1.57669e-07 271.585 
-0.77 -0.21 -4.13341 4.8421 0.00916235 0.00873709 -9.47955e-05 0.00895939 1.58317e-07 271.756 
-0.85 -0.19 -2.45697 5.42803 0.00912889 0.00868951 -0.000111318 0.00892514 1.57824e-07 271.564 
-0.75 -0.21 -4.62808 4.44364 0.00916972 0.00874269 -9.68288e-05 0.00897124 1.58422e-07 271.936 
-0.83 -0.19 -2.8018 5.14228 0.00912556 0.00870904 -0.000101618 0.00893313 1.57825e-07 271.805 
-0.81 -0.19 -3.29806 5.09809 0.00914743 0.00870163 -9.86537e-05 0.00893806 1.58084e-07 271.51 
-0.79 -0.19 -3.868 5.09075 0.0091668 0.00872962 -9.40673e-05 0.00896553 1.58427e-07 271.754 
-0.77 -0.19 -4.0576 5.31253 0.00916884 0.00873841 -0.000106782 0.00896596 1.58485e-07 271.668 
-0.99 -0.33 -0.132821 2.43444 0.00909954 0.00877269 -8.26797e-05 0.00894989 1.57963e-07 272.077 
-0.97 -0.33 -0.383125 2.50044 0.00911393 0.00875029 -8.18436e-05 0.00894437 1.57938e-07 271.953 
-0.91 -0.33 -1.53048 2.87035 0.00915313 0.00874069 -6.32789e-05 0.0089455 1.5783e-07 272.172 
-0.99 -0.31 -0.171345 2.81995 0.00908545 0.00875913 -9.34585e-05 0.00893416 1.5775e-07 271.966 
-0.97 -0.31 -0.352429 2.59154 0.00909586 0.00874869 -8.64222e-05 0.00893288 1.57861e-07 271.735 
-0.87 -0.33 -2.23436 2.65562 0.00914413 0.00872485 -6.17195e-05 0.00894241 1.57862e-07 272.024 
-0.95 -0.31 -0.969477 3.10445 0.00910075 0.00872144 -8.46005e-05 0.00892204 1.57509e-07 272.012 
-0.85 -0.33 -2.28809 2.50466 0.00914176 0.00871195 -5.41291e-05 0.00894053 1.57696e-07 272.253 
-0.93 -0.31 -1.28846 3.18299 0.00911937 0.00873184 -8.75253e-05 0.00893653 1.57715e-07 272.099 
-0.91 -0.31 -1.55476 3.03734 0.00913608 0.00872128 -7.20874e-05 0.00894106 1.57675e-07 272.306 
-0.99 -0.29 -0.156613 3.06599 0.00907789 0.00876056 -0.000100419 0.00893438 1.57753e-07 271.968 
-0.81 -0.33 -3.27141 2.50221 0.00916016 0.00872185 -4.79818e-05 0.00895701 1.58021e-07 272.194 
-0.89 -0.31 -1.72657 3.12813 0.00914502 0.00871642 -5.77858e-05 0.00894301 1.57806e-07 272.139 
-0.97 -0.29 -0.547137 3.04475 0.00908408 0.00873016 -9.59574e-05 0.00891953 1.575e-07 271.951 
-0.87 -0.31 -2.185 2.96464 0.00915055 0.00872392 -6.18597e-05 0.00894244 1.57933e-07 271.902 
-0.95 -0.29 -0.706557 3.45777 0.00909874 0.00872289 -9.49015e-05 0.00892577 1.57486e-07 272.166 
-0.85 -0.31 -2.72678 2.80528 0.00914957 0.00870365 -6.0043e-05 0.00893788 1.57828e-07 271.944 
-0.93 -0.29 -1.03395 3.24836 0.00910387 0.00873043 -9.44277e-05 0.00892516 1.57471e-07 272.173 
-0.83 -0.31 -2.86274 3.12408 0.00915132 0.00872275 -5.14323e-05 0.00895519 1.58011e-07 272.156 
-0.91 -0.29 -1.22039 3.54956 0.0090941 0.00870033 -8.08312e-05 0.0089089 1.57323e-07 271.934 
-0.99 -0.27 -0.128786 3.35043 0.00908434 0.00875548 -0.000112254 0.00893882 1.57934e-07 271.791 
-0.81 -0.31 -3.30187 2.89996 0.00915822 0.00871795 -5.48176e-05 0.00895585 1.58071e-07 272.072 
-0.89 -0.29 -1.59951 3.40951 0.00911165 0.0087105 -7.60278e-05 0.00892358 1.57574e-07 271.947 
-0.97 -0.27 -0.514752 3.41049 0.00908822 0.00872572 -0.000105447 0.00892253 1.57475e-07 272.086 
-0.79 -0.31 -3.67161 2.83063 0.00916438 0.00872864 -5.04689e-05 0.00895526 1.58145e-07 271.927 
-0.87 -0.29 -2.08212 3.50499 0.00912537 0.00871581 -5.82942e-05 0.0089312 1.57768e-07 271.845 
-0.95 -0.27 -0.725986 3.61029 0.0090952 0.0087244 -0.000101785 0.00892491 1.57507e-07 272.104 
-0.77 -0.31 -4.01641 2.95908 0.0091679 0.00874416 -4.96525e-05 0.00895655 1.58324e-07 271.659 
-0.85 -0.29 -2.647 3.26761 0.00913286 0.00870438 -6.12148e-05 0.00893104 1.57838e-07 271.72 
-0.93 -0.27 -0.944914 3.60587 0.00910415 0.00871416 -9.30031e-05 0.00891737 1.57268e-07 272.287 
-0.95 -0.33 -0.557206 2.53076 0.00912337 0.00872488 -7.32942e-05 0.00893369 1.57734e-07 271.98 
-0.93 -0.33 -1.06421 2.72983 0.00913628 0.00873396 -6.27811e-05 0.00893946 1.57755e-07 272.119 
-0.89 -0.33 -2.09689 2.73197 0.0091493 0.00871596 -5.75651e-05 0.00893553 1.5769e-07 272.112 
-0.83 -0.33 -2.86238 2.7361 0.00915296 0.00871793 -5.08953e-05 0.00895297 1.57965e-07 272.168 
-0.75 -0.31 -4.2763 2.73748 0.00917619 0.00876568 -4.48425e-05 0.00898662 1.5859e-07 272.115 
-0.75 -0.27 -4.47877 3.56648 0.00919891 0.00876315 -6.04982e-05 0.00899046 1.58747e-07 271.961 
-0.75 -0.25 -4.63235 3.72273 0.0091768 0.00875785 -7.10435e-05 0.00897304 1.58493e-07 271.87 
-0.75 -0.19 -4.44021 4.94154 0.00916304 0.00873433 -0.00010075 0.00896412 1.58563e-07 271.479 
-0.79 -0.33 -3.65075 2.46301 0.00915308 0.00873218 -4.92844e-05 0.00895521 1.58143e-07 271.93 
-0.75 -0.33 -4.26184 2.49435 0.00917214 0.00877146 -3.0156e-05 0.00897988 1.58536e-07 272.003 
-0.81 -0.17 -3.53266 5.70428 0.00913097 0.00869318 -0.000110172 0.00892093 1.57723e-07 271.61 
-0.79 -0.17 -3.93706 5.6323 0.00913844 0.00873471 -0.000109549 0.0089538 1.58191e-07 271.804 
-0.75 -0.17 -4.39548 5.48899 0.00916419 0.00873983 -0.000106014 0.00896371 1.58411e-07 271.727 
-0.73 -0.31 -4.7884 2.83011 0.00918956 0.00877944 -4.62426e-05 0.00899803 1.58732e-07 272.215 
-0.73 -0.29 -4.67529 3.20663 0.00918767 0.00877451 -4.9991e-05 0.00899095 1.58852e-07 271.797 
-0.73 -0.27 -5.00588 3.36663 0.00920842 0.00878524 -6.49025e-05 0.00900825 1.59009e-07 272.051 
-0.73 -0.25 -4.62973 3.76216 0.00918832 0.0087767 -6.53901e-05 0.00899178 1.58904e-07 271.732 
-0.73 -0.23 -4.83882 4.03418 0.00917889 0.00877132 -7.48028e-05 0.00898528 1.58695e-07 271.894 
-0.73 -0.21 -5.029 4.36987 0.00918635 0.00876828 -9.67122e-05 0.00898239 1.58574e-07 272.014 
-0.73 -0.19 -4.83048 4.82671 0.00916745 0.00877712 -0.000102271 0.00897832 1.58678e-07 271.713 
-0.79 -0.05 -3.22342 7.58268 0.00905498 0.00871329 -0.000152583 0.00889978 1.57492e-07 271.363 
-0.87 -0.03 -2.08602 8.33386 0.00899773 0.00862519 -0.0001813 0.00883019 1.56372e-07 271.169 
-0.83 -0.05 -2.70961 7.97988 0.00903131 0.00867516 -0.000152728 0.00887437 1.56995e-07 271.444 
-0.91 -0.03 -1.66308 8.11929 0.00899353 0.00862206 -0.000188609 0.00882984 1.56149e-07 271.546 
-0.81 -0.05 -2.90821 7.78525 0.00904527 0.00869531 -0.000138111 0.00888936 1.57356e-07 271.28 
-0.89 -0.03 -1.74975 8.37415 0.0089913 0.00862663 -0.000181689 0.00882837 1.56258e-07 271.312 
-0.77 -0.05 -3.59182 7.35535 0.00906585 0.00873898 -0.000154747 0.00892121 1.57683e-07 271.688 
-0.85 -0.03 -2.47093 8.13393 0.00900121 0.00864903 -0.000175956 0.00885098 1.56632e-07 271.356 
-0.75 -0.05 -3.85932 7.20374 0.00907677 0.00876188 -0.000164505 0.00892713 1.57781e-07 271.699 
-0.83 -0.03 -2.72252 8.36263 0.00901976 0.00866397 -0.000166809 0.00886488 1.56983e-07 271.176 
-0.81 -0.03 -3.17527 7.98277 0.00903201 0.00869167 -0.000157741 0.00887733 1.57163e-07 271.245 
-0.79 -0.03 -3.21123 8.11788 0.00905133 0.00871935 -0.000155951 0.00890135 1.57518e-07 271.367 
-0.77 -0.03 -3.59177 7.511 0.00905943 0.00874538 -0.000162891 0.00891435 1.57637e-07 271.557 
-0.95 -0.17 -0.759164 5.06157 0.0090824 0.00869811 -0.000146081 0.00889835 1.57366e-07 271.537 
-0.99 -0.15 -0.132204 4.84077 0.00904215 0.00870568 -0.000176765 0.00889229 1.57204e-07 271.632 
-0.89 -0.17 -1.91854 5.88041 0.00911047 0.00866932 -0.000119909 0.00890663 1.57358e-07 271.803 
-0.97 -0.15 -0.369016 5.44698 0.00906348 0.00870544 -0.000162567 0.00889517 1.57301e-07 271.553 
-0.95 -0.15 -0.847118 5.61482 0.00906932 0.00867762 -0.000151564 0.00888375 1.57148e-07 271.467 
-0.93 -0.15 -1.13751 5.95879 0.00907703 0.0086701 -0.000138214 0.00889001 1.57287e-07 271.419 
-0.83 -0.17 -2.97164 5.5522 0.00913323 0.00871494 -0.000103034 0.0089374 1.57866e-07 271.864 
-0.91 -0.15 -1.39135 6.20183 0.00909304 0.00867616 -0.000137122 0.00890216 1.574e-07 271.595 
-0.99 -0.13 -0.2654 5.21734 0.00904754 0.00870375 -0.000192346 0.00888817 1.57249e-07 271.428 
-0.89 -0.15 -1.60164 6.21091 0.00908845 0.0086543 -0.000127967 0.00888815 1.57212e-07 271.492 
-0.97 -0.13 -0.49975 5.8779 0.0090581 0.00868574 -0.000169984 0.00888425 1.57188e-07 271.415 
-0.87 -0.15 -2.26586 6.01364 0.00909497 0.0086819 -0.000122405 0.00891145 1.57398e-07 271.882 
-0.95 -0.13 -0.922998 5.99495 0.0090716 0.00866689 -0.000163656 0.00888358 1.57271e-07 271.25 
-0.77 -0.17 -4.18491 5.25645 0.00915266 0.00873164 -0.000107201 0.00896126 1.58451e-07 271.585 
-0.85 -0.15 -2.58774 6.28164 0.00910324 0.00867881 -0.000112608 0.00890711 1.57488e-07 271.594 
-0.93 -0.13 -1.16485 6.09044 0.00908412 0.00867065 -0.000155435 0.00889362 1.57245e-07 271.601 
-0.83 -0.15 -2.96433 6.05125 0.00911815 0.00870429 -0.000118475 0.0089248 1.57765e-07 271.656 
-0.91 -0.13 -1.58654 6.58201 0.00908048 0.00865512 -0.000141611 0.0088927 1.57315e-07 271.452 
-0.99 -0.11 -0.128114 5.59139 0.00903849 0.00868874 -0.000185264 0.00887798 1.56944e-07 271.644 
-0.81 -0.15 -3.31575 6.17635 0.00912827 0.00870612 -0.000113346 0.008934 1.57783e-07 271.904 
-0.89 -0.13 -1.8952 6.47196 0.00909205 0.00865953 -0.000131977 0.00889332 1.57426e-07 271.28 
-0.97 -0.11 -0.56713 6.16214 0.00903305 0.00867285 -0.000185695 0.00887265 1.56881e-07 271.59 
-0.79 -0.15 -3.82492 5.85615 0.00913284 0.00872809 -0.000120243 0.00894981 1.58123e-07 271.8 
-0.87 -0.13 -2.35847 6.70415 0.00909979 0.00866318 -0.000128498 0.00890253 1.57546e-07 271.353 
-0.95 -0.11 -0.84171 6.35174 0.00904586 0.00865907 -0.000173188 0.00887065 1.57026e-07 271.278 
-0.77 -0.15 -4.25691 5.68408 0.00914128 0.00873259 -0.000116344 0.0089537 1.58396e-07 271.448 
-0.85 -0.13 -2.69506 6.37563 0.00911862 0.00868709 -0.000125922 0.00891631 1.57639e-07 271.613 
-0.93 -0.11 -1.27052 6.53602 0.00905999 0.00865855 -0.000163677 0.00887603 1.57178e-07 271.181 
-0.75 -0.15 -4.60477 5.81648 0.00914778 0.00874112 -0.00011342 0.00895851 1.58498e-07 271.421 
-0.83 -0.13 -2.94092 6.56497 0.00912507 0.00869728 -0.000126728 0.00892614 1.57583e-07 272.01 
-0.91 -0.11 -1.51082 6.91285 0.00906752 0.0086435 -0.000149957 0.00887396 1.57127e-07 271.205 
-0.99 -0.09 -0.0954945 5.90116 0.00899473 0.0086812 -0.000201494 0.0088525 1.56634e-07 271.4 
-0.81 -0.13 -3.46151 6.49028 0.00911555 0.00870444 -0.000116559 0.0089263 1.57996e-07 271.304 
-0.89 -0.11 -1.89463 6.96571 0.00908349 0.00865578 -0.000142589 0.00888401 1.57463e-07 270.933 
-0.97 -0.09 -0.463851 6.69541 0.0090179 0.00866384 -0.000192848 0.00886566 1.56864e-07 271.406 
-0.79 -0.13 -3.58398 6.40523 0.00912642 0.0087293 -0.000124957 0.00894745 1.58099e-07 271.77 
-0.87 -0.11 -2.22833 7.04987 0.00909504 0.00865889 -0.000144427 0.00889789 1.57539e-07 271.225 
-0.95 -0.09 -0.934379 6.72454 0.00903116 0.00865553 -0.00018051 0.00887016 1.56942e-07 271.407 
-0.77 -0.13 -4.09182 6.0862 0.00912746 0.00872871 -0.000121623 0.00894355 1.58116e-07 271.621 
-0.85 -0.11 -2.57308 6.76643 0.00910138 0.00868623 -0.000132936 0.00890644 1.57672e-07 271.256 
-0.93 -0.09 -1.23845 6.7739 0.00903539 0.00864061 -0.000176808 0.00885797 1.56997e-07 270.94 
-0.83 -0.11 -3.00112 7.05031 0.00909862 0.00868429 -0.00012406 0.00890908 1.5761e-07 271.443 
-0.91 -0.09 -1.44102 7.27669 0.00904515 0.00863382 -0.000158498 0.00886039 1.56947e-07 271.1 
-0.99 -0.07 -0.324605 6.26313 0.00900273 0.00867734 -0.000205618 0.00885477 1.56584e-07 271.557 
-0.81 -0.11 -3.33198 6.58613 0.00912276 0.00871633 -0.000127076 0.00893298 1.57801e-07 271.842 
-0.89 -0.09 -1.90707 7.33511 0.00905575 0.00865485 -0.000158717 0.00887613 1.57259e-07 271.044 
-0.97 -0.07 -0.519335 7.03759 0.00898862 0.00864923 -0.000203521 0.00884199 1.56437e-07 271.419 
-0.79 -0.11 -3.47883 6.74084 0.00912753 0.00872345 -0.000129309 0.00894549 1.58223e-07 271.496 
-0.87 -0.09 -2.13997 7.389 0.0090702 0.00865331 -0.00015553 0.00888542 1.57463e-07 270.975 
-0.95 -0.07 -0.7331 7.04406 0.00899244 0.00865078 -0.000191488 0.00884506 1.56405e-07 271.569 
-0.77 -0.11 -3.97651 6.31009 0.0091301 0.00872152 -0.000126825 0.00894157 1.58051e-07 271.674 
-0.85 -0.09 -2.57325 7.19187 0.00907926 0.00866883 -0.00014485 0.00889007 1.57411e-07 271.206 
-0.93 -0.07 -1.17114 7.24131 0.00900144 0.00862794 -0.000181264 0.0088417 1.56628e-07 271.08 
-0.75 -0.11 -4.43234 6.2854 0.00913848 0.00874975 -0.000127295 0.00895152 1.58354e-07 271.456 
-0.83 -0.09 -2.83415 7.17794 0.00909633 0.00868733 -0.000136917 0.0089108 1.57629e-07 271.463 
-0.91 -0.07 -1.69176 7.57035 0.00902297 0.00862623 -0.000178588 0.00885037 1.5661e-07 271.376 
-0.99 -0.05 0.00456404 6.6228 0.0089809 0.0086662 -0.000214423 0.00883994 1.56405e-07 271.411 
-0.81 -0.09 -3.17322 7.07481 0.00910132 0.00871726 -0.000140851 0.00892368 1.57901e-07 271.387 
-0.89 -0.07 -1.97157 7.60851 0.0090368 0.00865226 -0.000174972 0.00886548 1.5696e-07 271.234 
-0.97 -0.05 -0.489922 7.20735 0.00900736 0.00865108 -0.000206242 0.00884936 1.56612e-07 271.342 
-0.79 -0.09 -3.64949 6.92011 0.00910354 0.0087207 -0.000126999 0.0089261 1.57848e-07 271.552 
-0.87 -0.07 -2.30347 7.82247 0.00903754 0.00863856 -0.000157021 0.00886164 1.56852e-07 271.302 
-0.95 -0.05 -0.759478 7.42704 0.00900566 0.00863251 -0.00019491 0.00883999 1.56367e-07 271.479 
-0.77 -0.09 -3.83826 6.86682 0.00909999 0.00872061 -0.000123953 0.00893085 1.57936e-07 271.545 
-0.85 -0.07 -2.5666 7.49586 0.00904641 0.00865753 -0.000151201 0.00887613 1.56932e-07 271.608 
-0.93 -0.05 -1.25629 7.79739 0.00900191 0.00862438 -0.000183816 0.00883596 1.56389e-07 271.318 
-0.75 -0.09 -4.12021 6.62948 0.00909761 0.00875026 -0.000136864 0.00893934 1.58048e-07 271.611 
-0.83 -0.07 -2.92016 7.5638 0.00905921 0.00869072 -0.000147496 0.00889002 1.57224e-07 271.528 
-0.91 -0.05 -1.47884 7.95649 0.0089975 0.0086258 -0.000185177 0.00883495 1.56383e-07 271.297 
-0.99 -0.03 -0.171824 6.9661 0.00895357 0.0086561 -0.000231393 0.00881921 1.56025e-07 271.436 
-0.81 -0.07 -3.32566 7.6441 0.00905843 0.00870568 -0.000146544 0.00890055 1.57481e-07 271.405 
-0.89 -0.05 -1.83001 7.99922 0.0090009 0.00863553 -0.000177727 0.00884347 1.5661e-07 271.165 
-0.97 -0.03 -0.377601 7.57886 0.00895708 0.00862879 -0.000212653 0.00881082 1.56039e-07 271.152 