ITEM: TIMESTEP
943000
ITEM: NUMBER OF CELLS
5000
ITEM: BOX BOUNDS ss ss pp
-1 1
-0.5 0.5
-0.5 0.5
ITEM: CELLS xc yc f_U[*] f_V[*] f_Tau[1] f_Tau[2] f_Tau[3] f_Press[*] f_Mrho[*] f_Ttra[*] 
-0.99 -0.49 -0.203683 0.318558 0.00898917 0.00874906 -3.10716e-05 0.00887924 1.5664e-07 272.209 
-0.97 -0.49 -0.622339 0.0896254 0.00898615 0.00875383 -3.13572e-05 0.00887974 1.56651e-07 272.206 
-0.95 -0.49 -0.754263 0.0268552 0.00898962 0.00874366 -3.41657e-05 0.00887392 1.56643e-07 272.042 
-0.93 -0.49 -0.939733 0.153101 0.00900133 0.00875493 -2.29828e-05 0.0088858 1.56825e-07 272.09 
-0.91 -0.49 -1.17232 0.0384931 0.00900788 0.00873315 -1.97631e-05 0.00887051 1.56714e-07 271.813 
-0.99 -0.47 -0.201291 0.631675 0.00901496 0.00877166 -1.61618e-05 0.00890198 1.56991e-07 272.297 
-0.89 -0.49 -1.56839 0.271631 0.00902553 0.00874479 -2.47399e-05 0.00888626 1.56788e-07 272.168 
-0.97 -0.47 -0.397617 0.411192 0.00901289 0.00875246 -3.57684e-05 0.00889581 1.56773e-07 272.486 
-0.87 -0.49 -1.79763 -0.0175723 0.00904501 0.0087699 -1.4283e-05 0.00890663 1.57146e-07 272.171 
-0.95 -0.47 -0.783369 0.336561 0.00902383 0.00874784 -3.39984e-05 0.00889602 1.56829e-07 272.396 
-0.85 -0.49 -1.93852 0.185078 0.00904705 0.00875109 -4.76041e-06 0.00889632 1.56825e-07 272.412 
-0.93 -0.47 -1.02461 0.231567 0.00902473 0.00874484 -3.77952e-05 0.00888939 1.56775e-07 272.286 
-0.83 -0.49 -1.97533 -0.110505 0.00905175 0.00876272 2.32804e-06 0.00891248 1.57158e-07 272.328 
-0.91 -0.47 -1.31956 0.677493 0.00903686 0.00873723 -3.17287e-05 0.00889068 1.56922e-07 272.07 
-0.99 -0.45 -0.105587 0.899246 0.00904694 0.00877609 -2.79989e-05 0.00892006 1.57321e-07 272.277 
-0.81 -0.49 -2.14222 0.272962 0.00905667 0.00876976 1.25352e-05 0.0089229 1.57384e-07 272.255 
-0.89 -0.47 -1.68806 0.429247 0.00904088 0.00874309 -3.48734e-05 0.00889106 1.56912e-07 272.099 
-0.97 -0.45 -0.350513 0.724084 0.00905633 0.00876407 -3.68411e-05 0.00891655 1.57154e-07 272.458 
-0.79 -0.49 -2.50429 0.0744024 0.00906303 0.00877706 1.82591e-05 0.00892716 1.57404e-07 272.351 
-0.87 -0.47 -1.93303 0.201588 0.00904319 0.00875025 -2.19857e-05 0.00890794 1.57047e-07 272.381 
-0.95 -0.45 -0.668607 0.737546 0.00905216 0.00874536 -4.06719e-05 0.00890543 1.56905e-07 272.552 
-0.77 -0.49 -2.5707 0.00619447 0.00906892 0.00879795 2.81982e-05 0.00894399 1.57665e-07 272.413 
-0.85 -0.47 -2.10647 0.273194 0.00905287 0.00874979 -9.85508e-06 0.00890942 1.57069e-07 272.389 
-0.93 -0.45 -1.17524 0.476624 0.009062 0.0087382 -4.50356e-05 0.008905 1.57138e-07 272.135 
-0.83 -0.47 -2.38107 0.126379 0.00906004 0.00875317 -7.15006e-06 0.00891647 1.5717e-07 272.43 
-0.91 -0.45 -1.33147 0.892327 0.00906167 0.0087439 -3.54978e-05 0.00890218 1.57157e-07 272.015 
-0.99 -0.43 -0.208197 1.18211 0.00908047 0.0087765 -3.80207e-05 0.00894124 1.57778e-07 272.134 
-0.81 -0.47 -2.59893 0.548386 0.00907023 0.00876148 -8.18023e-07 0.00893055 1.57461e-07 272.356 
-0.89 -0.45 -1.71737 0.732165 0.00907198 0.00873483 -3.77241e-05 0.00890057 1.57147e-07 271.983 
-0.97 -0.43 -0.486513 0.983232 0.00908519 0.00877069 -3.69051e-05 0.00893832 1.57555e-07 272.429 
-0.79 -0.47 -2.88655 0.356567 0.00908395 0.00876475 1.26807e-05 0.00894117 1.57748e-07 272.183 
-0.87 -0.45 -1.99591 0.610335 0.0090752 0.0087385 -2.39625e-05 0.00891008 1.57077e-07 272.395 
-0.95 -0.43 -0.662302 0.941865 0.00908831 0.00874846 -4.48231e-05 0.00892446 1.57452e-07 272.185 
-0.77 -0.47 -3.12453 0.113779 0.00909841 0.00879559 1.48711e-05 0.00895519 1.57937e-07 272.283 
-0.85 -0.45 -2.33958 0.425394 0.00908488 0.00873907 -1.92544e-05 0.00891909 1.57209e-07 272.442 
-0.93 -0.43 -0.89418 1.00981 0.00908717 0.00873953 -3.96021e-05 0.00891879 1.57332e-07 272.22 
-0.75 -0.47 -3.29708 0.380699 0.00910449 0.00880622 1.89681e-05 0.00896061 1.57772e-07 272.734 
-0.83 -0.45 -2.64365 0.422025 0.00909895 0.00875615 -1.42641e-05 0.00893555 1.57638e-07 272.202 
-0.91 -0.43 -1.54535 1.04803 0.00908542 0.00874174 -4.38091e-05 0.00891198 1.57209e-07 272.224 
-0.99 -0.41 -0.208171 1.62053 0.00908507 0.00877215 -5.03491e-05 0.0089394 1.57766e-07 272.098 
-0.81 -0.45 -2.82386 0.833774 0.00909578 0.00874637 -1.06252e-05 0.00893227 1.57537e-07 272.277 
-0.89 -0.43 -1.53806 1.14164 0.00907671 0.00872406 -3.86523e-05 0.00890526 1.57205e-07 272.026 
-0.97 -0.41 -0.397688 1.05546 0.00909937 0.0087723 -4.60127e-05 0.00894336 1.57623e-07 272.466 
-0.79 -0.45 -3.02608 0.631668 0.00910367 0.00875817 -2.78331e-09 0.00893906 1.57716e-07 272.173 
-0.87 -0.43 -1.92249 0.800786 0.00908464 0.00873436 -3.85728e-05 0.00891802 1.57278e-07 272.29 
-0.95 -0.41 -0.588314 1.25551 0.00910302 0.00875597 -4.18575e-05 0.00894018 1.57657e-07 272.31 
-0.77 -0.45 -3.46701 0.459299 0.0091135 0.00878937 8.40666e-06 0.0089576 1.57893e-07 272.433 
-0.85 -0.43 -2.12066 0.833618 0.00910064 0.00873639 -2.97732e-05 0.0089241 1.57464e-07 272.153 
-0.93 -0.41 -1.16738 1.51484 0.00909551 0.00872688 -4.25293e-05 0.00892217 1.57472e-07 272.08 
-0.75 -0.45 -3.70489 0.513061 0.00911378 0.0087975 1.59837e-05 0.00896072 1.5802e-07 272.308 
-0.83 -0.43 -2.5208 0.812308 0.00910332 0.00874244 -1.78061e-05 0.00892944 1.57436e-07 272.364 
-0.91 -0.41 -1.28598 1.29563 0.00910113 0.00874036 -3.67954e-05 0.00892887 1.5769e-07 271.908 
-0.99 -0.39 -0.105414 1.8483 0.00908298 0.00877349 -5.37955e-05 0.00894035 1.57836e-07 272.006 
-0.81 -0.43 -3.04071 1.00412 0.00911734 0.00874547 -1.19893e-05 0.00893946 1.57722e-07 272.175 
-0.89 -0.41 -1.6772 1.34012 0.00910392 0.00873769 -4.00354e-05 0.00892671 1.57452e-07 272.254 
-0.97 -0.39 -0.550571 1.33272 0.00908797 0.00876733 -5.17831e-05 0.00893562 1.57748e-07 272.014 
-0.79 -0.43 -3.27903 0.893185 0.00912289 0.00874934 -8.05532e-06 0.00894584 1.57892e-07 272.077 
-0.87 -0.41 -2.03082 1.21295 0.00909727 0.00872439 -3.90757e-05 0.00892457 1.57331e-07 272.397 
-0.95 -0.39 -0.961659 1.58265 0.00908549 0.00874509 -4.52262e-05 0.00891837 1.57345e-07 272.184 
-0.77 -0.43 -3.51233 0.798896 0.0091309 0.00877947 2.17638e-06 0.00896633 1.58219e-07 272.137 
-0.85 -0.41 -2.60876 1.15755 0.00909335 0.00873345 -3.69087e-05 0.0089286 1.57574e-07 272.099 
-0.93 -0.39 -0.755408 1.76579 0.00909946 0.008732 -3.77934e-05 0.00892389 1.57506e-07 272.075 
-0.83 -0.41 -2.81179 1.21746 0.00910959 0.00873175 -3.27156e-05 0.00892776 1.57561e-07 272.096 
-0.91 -0.39 -1.26834 1.76384 0.00910081 0.00874023 -4.6141e-05 0.0089307 1.57519e-07 272.259 
-0.99 -0.37 0.137133 2.06607 0.00908086 0.00878456 -5.831e-05 0.00894646 1.5803e-07 271.858 
-0.81 -0.41 -2.98101 1.34071 0.00912149 0.00873197 -1.92159e-05 0.00893217 1.57737e-07 271.928 
-0.89 -0.39 -1.57996 1.55282 0.0091083 0.00873576 -4.42769e-05 0.0089351 1.57576e-07 272.295 
-0.97 -0.37 -0.29902 1.93606 0.00908909 0.0087531 -6.02591e-05 0.00893553 1.57688e-07 272.115 
-0.79 -0.41 -3.33044 1.08624 0.0091374 0.008752 -1.48438e-05 0.00895711 1.5809e-07 272.078 
-0.87 -0.39 -1.9063 1.64259 0.00911912 0.00871803 -4.05714e-05 0.00893212 1.5758e-07 272.197 
-0.95 -0.37 -0.710611 1.71057 0.00910689 0.00874356 -5.21589e-05 0.0089328 1.57713e-07 271.989 
-0.77 -0.41 -3.75602 1.17418 0.00914258 0.0087704 -1.75998e-05 0.00896966 1.58302e-07 272.095 
-0.85 -0.39 -2.22634 1.60739 0.0091303 0.00873868 -4.04607e-05 0.00894337 1.57973e-07 271.862 
-0.93 -0.37 -1.23184 1.96004 0.00911522 0.00873075 -5.24008e-05 0.00893471 1.57662e-07 272.135 
-0.75 -0.41 -3.94878 1.08277 0.00916038 0.00879426 -7.81209e-06 0.00898969 1.5855e-07 272.275 
-0.83 -0.39 -2.62161 1.44691 0.00912542 0.00872182 -4.09228e-05 0.00892987 1.57699e-07 271.923 
-0.91 -0.37 -1.36056 2.05447 0.00913413 0.00874014 -5.58893e-05 0.00894687 1.57702e-07 272.436 
-0.99 -0.35 -0.231011 2.09345 0.00909896 0.00877667 -7.79459e-05 0.00895011 1.58091e-07 271.865 
-0.81 -0.39 -2.85949 1.46884 0.00912748 0.00872593 -3.54237e-05 0.00893617 1.57692e-07 272.128 
-0.89 -0.37 -1.713 1.98076 0.00913801 0.00873276 -4.65049e-05 0.00894541 1.57861e-07 272.117 
-0.97 -0.35 -0.384799 2.4404 0.00910727 0.00874802 -6.48078e-05 0.00893902 1.57818e-07 271.997 
-0.79 -0.39 -3.24237 1.60964 0.00913898 0.00874345 -2.52511e-05 0.00895495 1.5804e-07 272.098 
-0.87 -0.37 -2.18461 2.06051 0.00913549 0.00871646 -4.91346e-05 0.00893539 1.57581e-07 272.296 
-0.95 -0.35 -0.67908 2.00042 0.0091148 0.00873494 -6.2736e-05 0.00893289 1.57703e-07 272.008 
-0.77 -0.39 -3.74907 1.54879 0.00914861 0.00877545 -1.99806e-05 0.00897855 1.5843e-07 272.145 
-0.85 -0.37 -2.46127 1.8829 0.00913663 0.00873497 -4.78594e-05 0.00894214 1.57838e-07 272.057 
-0.93 -0.35 -1.11214 2.40795 0.00912314 0.00873643 -6.65095e-05 0.00894037 1.57779e-07 272.106 
-0.83 -0.37 -2.81898 1.76144 0.00914325 0.00871639 -3.87165e-05 0.00893353 1.57765e-07 271.921 
-0.91 -0.35 -1.45601 2.41775 0.00911741 0.00873666 -5.34402e-05 0.00893106 1.57579e-07 272.166 
-0.81 -0.37 -3.20382 1.68366 0.00915126 0.00872233 -3.52212e-05 0.00894633 1.57902e-07 272.074 
-0.89 -0.35 -1.79064 2.44586 0.00912206 0.00872456 -5.42125e-05 0.00893022 1.57567e-07 272.161 
-0.79 -0.37 -3.56857 2.09744 0.00915168 0.00873902 -3.43514e-05 0.00896072 1.58294e-07 271.838 
-0.87 -0.35 -2.228 2.25066 0.00913774 0.00872017 -5.05049e-05 0.00893927 1.57743e-07 272.134 
-0.77 -0.37 -3.85667 2.09588 0.00916055 0.00877529 -2.79684e-05 0.00897691 1.58352e-07 272.228 
-0.85 -0.35 -2.63684 2.39695 0.00914757 0.00872236 -4.94549e-05 0.00893718 1.57878e-07 271.838 
-0.83 -0.35 -3.05705 2.09091 0.00914708 0.00871562 -4.44145e-05 0.00893312 1.57827e-07 271.801 
-0.81 -0.35 -3.46289 2.13595 0.00915242 0.00872381 -4.88471e-05 0.00895092 1.5805e-07 271.96 
-0.79 -0.35 -3.73139 2.32351 0.00917226 0.00873291 -4.31094e-05 0.00896404 1.58349e-07 271.844 
-0.77 -0.35 -3.89523 2.38788 0.00918322 0.00876463 -3.47208e-05 0.00898155 1.58458e-07 272.187 
-0.75 -0.35 -4.20117 2.30118 0.00918757 0.00878094 -2.44222e-05 0.00899625 1.58677e-07 272.256 
-0.75 -0.49 -2.72084 0.169921 0.00908135 0.00880638 2.76889e-05 0.00894638 1.57736e-07 272.362 
-0.75 -0.43 -3.79733 0.717464 0.00914282 0.00879593 8.98887e-07 0.00898048 1.58284e-07 272.454 
-0.75 -0.39 -4.50949 1.45732 0.00915203 0.00878463 -2.23666e-05 0.00898344 1.58517e-07 272.143 
-0.75 -0.37 -4.1251 1.914 0.00916125 0.00877814 -2.12701e-05 0.00897923 1.58345e-07 272.311 
-0.77 -0.33 -3.99475 2.69411 0.00915848 0.00875013 -4.55771e-05 0.00895925 1.58326e-07 271.738 
-0.73 -0.49 -3.0217 0.181831 0.00908659 0.00882198 2.6996e-05 0.00896429 1.58082e-07 272.31 
-0.73 -0.47 -3.31136 0.153939 0.0091109 0.00881169 2.75995e-05 0.00897582 1.58193e-07 272.469 
-0.73 -0.45 -3.87079 0.310624 0.00912214 0.00880953 1.41114e-05 0.00897613 1.58316e-07 272.266 
-0.73 -0.43 -4.31844 0.882706 0.00915635 0.00881129 4.33903e-06 0.00899352 1.58523e-07 272.439 
-0.73 -0.41 -4.307 1.16662 0.0091653 0.00880675 -6.11174e-06 0.00899771 1.58697e-07 272.267 
-0.73 -0.39 -4.54607 1.48764 0.00916239 0.00879872 -7.15418e-06 0.0089901 1.58583e-07 272.231 
-0.73 -0.37 -4.58074 1.72116 0.00916122 0.00878029 -2.21957e-05 0.00898231 1.58455e-07 272.215 
-0.73 -0.35 -4.58779 2.01195 0.00918522 0.00877826 -2.05797e-05 0.00898994 1.58606e-07 272.187 
-0.81 -0.29 -3.36952 3.34634 0.00915484 0.00871425 -6.53092e-05 0.00894119 1.58034e-07 271.691 
-0.89 -0.27 -1.81188 3.90699 0.00912014 0.00869975 -8.92703e-05 0.00892541 1.57567e-07 272.015 
-0.97 -0.25 -0.496262 3.6576 0.00909425 0.00872335 -0.000108384 0.00891775 1.57534e-07 271.839 
-0.83 -0.29 -3.03106 3.53069 0.00914854 0.00872514 -6.9419e-05 0.00894709 1.57872e-07 272.149 
-0.91 -0.27 -1.4466 3.88303 0.0091206 0.00870338 -8.78064e-05 0.00892434 1.5759e-07 271.943 
-0.99 -0.25 -0.204155 3.82468 0.00909091 0.0087555 -0.000116056 0.00893369 1.57851e-07 271.777 
-0.79 -0.29 -3.71883 3.24441 0.00917113 0.008722 -6.16763e-05 0.00895197 1.58161e-07 271.801 
-0.87 -0.27 -2.35076 4.01995 0.00912326 0.00870669 -7.35516e-05 0.00893392 1.57745e-07 271.967 
-0.95 -0.25 -0.701027 3.81654 0.00910393 0.00871976 -0.000104195 0.0089244 1.57688e-07 271.776 
-0.77 -0.29 -4.02235 3.21224 0.00918615 0.00874302 -5.06636e-05 0.00897278 1.58529e-07 271.8 
-0.85 -0.27 -2.61884 3.76628 0.00913663 0.00871136 -7.31801e-05 0.00893488 1.57767e-07 271.959 
-0.93 -0.25 -1.17644 4.06688 0.00910135 0.00870353 -0.000106852 0.00891597 1.57483e-07 271.872 
-0.75 -0.29 -4.49551 3.20277 0.00918642 0.00876639 -5.53011e-05 0.0089909 1.58701e-07 272.054 
-0.83 -0.27 -3.03668 3.77446 0.00915084 0.00872797 -7.07865e-05 0.00895232 1.58092e-07 271.929 
-0.91 -0.25 -1.61225 4.27231 0.00911492 0.00869644 -9.76752e-05 0.00891794 1.57546e-07 271.824 
-0.99 -0.23 -0.00895644 4.06962 0.00906387 0.00874285 -0.000129008 0.00891778 1.57519e-07 271.865 
-0.81 -0.27 -3.53814 3.74627 0.00915954 0.00871384 -7.9419e-05 0.00894968 1.58077e-07 271.875 
-0.89 -0.25 -2.15383 4.22568 0.00912653 0.00869099 -8.67549e-05 0.0089272 1.57552e-07 272.095 
-0.97 -0.23 -0.324268 3.95135 0.00908211 0.0087297 -0.000119528 0.00891989 1.57664e-07 271.679 
-0.79 -0.27 -4.05199 3.65845 0.00916788 0.00871196 -7.14952e-05 0.00894462 1.58199e-07 271.512 
-0.87 -0.25 -2.26594 4.33086 0.00914029 0.00870322 -8.58056e-05 0.00893999 1.57933e-07 271.828 
-0.95 -0.23 -0.874433 4.20682 0.00909049 0.0087096 -0.000118764 0.00891247 1.57458e-07 271.808 
-0.77 -0.27 -4.34051 3.60519 0.00917241 0.00873807 -6.22462e-05 0.00896887 1.58458e-07 271.803 
-0.85 -0.25 -2.65734 4.13258 0.009152 0.00871498 -8.85856e-05 0.00894233 1.5786e-07 272.025 
-0.93 -0.23 -1.11653 4.44484 0.00910931 0.00870345 -0.000111786 0.00891856 1.57484e-07 271.95 
-0.83 -0.25 -3.1272 4.15341 0.00915788 0.00871438 -8.53465e-05 0.00893845 1.5814e-07 271.426 
-0.91 -0.23 -1.45723 4.63881 0.00911491 0.00868408 -0.000105209 0.00892099 1.57489e-07 272.015 
-0.99 -0.21 -0.0463636 4.16596 0.00909779 0.0087391 -0.000131385 0.00893016 1.5788e-07 271.621 
-0.81 -0.25 -3.29001 4.2917 0.00915874 0.00872552 -7.58379e-05 0.00895057 1.58249e-07 271.607 
-0.89 -0.23 -1.94119 4.78111 0.00912542 0.00868395 -0.000101119 0.00891955 1.5754e-07 271.884 
-0.97 -0.21 -0.191388 4.36222 0.00910114 0.00871038 -0.000128746 0.0089167 1.57658e-07 271.593 
-0.79 -0.25 -3.81391 4.21844 0.00914966 0.008701 -7.64239e-05 0.00893498 1.58029e-07 271.51 
-0.87 -0.23 -2.43946 4.51544 0.0091384 0.00870472 -0.000101003 0.00893103 1.57789e-07 271.803 
-0.95 -0.21 -0.501224 4.60221 0.00910776 0.00871475 -0.000123005 0.00892367 1.5748e-07 272.113 
-0.77 -0.25 -4.37718 3.80407 0.00916103 0.00873576 -8.05068e-05 0.00895619 1.58261e-07 271.757 
-0.85 -0.23 -2.77533 4.72008 0.00914057 0.00871082 -8.90372e-05 0.00893022 1.57791e-07 271.775 
-0.93 -0.21 -1.17672 4.78895 0.00910811 0.00869273 -0.000122663 0.00891341 1.57592e-07 271.607 
-0.83 -0.23 -3.14325 4.42946 0.00913193 0.00870576 -8.22968e-05 0.00892665 1.57814e-07 271.628 
-0.91 -0.21 -1.45961 4.89163 0.00911651 0.00868011 -0.000113679 0.00891609 1.57571e-07 271.723 
-0.99 -0.19 -0.182984 4.3579 0.0090716 0.00872713 -0.000144442 0.00891406 1.57509e-07 271.769 
-0.81 -0.23 -3.52706 4.45627 0.00914505 0.00871574 -8.38423e-05 0.00894169 1.57987e-07 271.786 
-0.89 -0.21 -1.72553 5.30106 0.00912849 0.00869041 -0.000111759 0.00893248 1.57732e-07 271.946 
-0.97 -0.19 -0.632935 4.73986 0.00908689 0.00870614 -0.000137153 0.00890404 1.57526e-07 271.435 
-0.79 -0.23 -3.65008 4.7216 0.0091654 0.00871166 -8.13965e-05 0.00894945 1.58184e-07 271.684 
-0.87 -0.21 -2.15819 4.9915 0.00912856 0.00868466 -0.000109823 0.00892271 1.57815e-07 271.505 
-0.95 -0.19 -0.917647 4.95691 0.00910411 0.00871475 -0.000130341 0.00891567 1.57545e-07 271.757 
-0.77 -0.23 -4.08762 4.36381 0.00916882 0.00873747 -8.98001e-05 0.00896454 1.58432e-07 271.716 
-0.85 -0.21 -2.78754 5.089 0.00914188 0.0087 -9.23979e-05 0.00893329 1.57778e-07 271.892 
-0.93 -0.19 -0.95722 5.27541 0.00911159 0.00868998 -0.000124144 0.00891828 1.57656e-07 271.645 
-0.75 -0.23 -4.53072 3.96968 0.00917585 0.00874878 -8.67055e-05 0.00897366 1.58424e-07 272.006 
-0.83 -0.21 -3.1964 4.73819 0.00916182 0.00871332 -9.12722e-05 0.00894841 1.57977e-07 272.009 
-0.91 -0.19 -1.49952 5.23863 0.00911095 0.00867018 -0.000124953 0.00890415 1.5739e-07 271.672 
-0.81 -0.21 -3.47259 4.80524 0.0091564 0.00871169 -8.31271e-05 0.00895003 1.58278e-07 271.54 
-0.89 -0.19 -1.95255 5.66355 0.00912013 0.00868352 -0.000113375 0.00891648 1.57516e-07 271.83 
-0.79 -0.21 -3.84726 5.04946 0.00914775 0.00871325 -9.43236e-05 0.00894694 1.58169e-07 271.634 
-0.87 -0.19 -2.4419 5.41442 0.00912096 0.00868465 -0.000105319 0.00891763 1.57639e-07 271.653 
-0.77 -0.21 -4.20068 4.8063 0.00916247 0.00874116 -9.35927e-05 0.00896013 1.5836e-07 271.706 
-0.85 -0.19 -2.58844 5.46478 0.00912507 0.00868768 -0.000111563 0.00892157 1.57758e-07 271.568 
-0.75 -0.21 -4.65862 4.37089 0.00916676 0.00874022 -9.45944e-05 0.00896751 1.58425e-07 271.818 
-0.83 -0.19 -2.9195 5.18353 0.00912217 0.00870418 -0.000101014 0.00892853 1.57792e-07 271.723 
-0.81 -0.19 -3.35124 5.20968 0.00914689 0.00870379 -9.6285e-05 0.00893585 1.57993e-07 271.599 
-0.79 -0.19 -3.83481 5.21269 0.00916682 0.00873355 -9.34484e-05 0.00896704 1.58404e-07 271.84 
-0.77 -0.19 -4.06071 5.28236 0.00916825 0.00873744 -0.000103638 0.00896599 1.58473e-07 271.69 
-0.99 -0.33 -0.146791 2.45315 0.0090971 0.00877016 -8.22865e-05 0.0089455 1.57923e-07 272.012 
-0.97 -0.33 -0.371038 2.45445 0.00911164 0.00874737 -8.23083e-05 0.00894093 1.57858e-07 271.985 
-0.91 -0.33 -1.50175 2.82406 0.00914779 0.00873304 -6.37496e-05 0.00894235 1.57826e-07 272.085 
-0.99 -0.31 -0.0984956 2.76126 0.00908491 0.00875973 -9.2377e-05 0.00893232 1.57723e-07 271.957 
-0.97 -0.31 -0.316371 2.7199 0.00909463 0.00874486 -8.64732e-05 0.00893106 1.57857e-07 271.687 
-0.87 -0.33 -2.16161 2.74722 0.00914615 0.0087264 -6.06676e-05 0.00894415 1.57895e-07 272.021 
-0.95 -0.31 -0.912014 3.12505 0.00910265 0.00872254 -8.51207e-05 0.00892225 1.57552e-07 271.944 
-0.85 -0.33 -2.32859 2.615 0.00914242 0.00871102 -5.36398e-05 0.00893772 1.577e-07 272.161 
-0.93 -0.31 -1.25422 3.08724 0.00912224 0.0087291 -8.60148e-05 0.0089393 1.57854e-07 271.943 
-0.91 -0.31 -1.478 3.01355 0.00913601 0.00871632 -7.14544e-05 0.00894168 1.57703e-07 272.276 
-0.99 -0.29 -0.177025 3.04595 0.00908147 0.00876105 -0.000100347 0.00893593 1.5779e-07 271.951 
-0.81 -0.33 -3.45318 2.50241 0.00916089 0.00872407 -4.85377e-05 0.00895819 1.58192e-07 271.936 
-0.89 -0.31 -1.74077 3.11577 0.00914316 0.00871415 -5.6776e-05 0.0089409 1.57832e-07 272.03 
-0.97 -0.29 -0.613308 3.12427 0.00909009 0.00873383 -9.732e-05 0.00892205 1.57555e-07 271.933 
-0.87 -0.31 -2.17891 3.06598 0.00914935 0.00872851 -6.13332e-05 0.00894511 1.57988e-07 271.889 
-0.95 -0.29 -0.728253 3.41761 0.00910301 0.00872145 -9.52712e-05 0.00892535 1.57486e-07 272.153 
-0.85 -0.31 -2.68035 2.87123 0.0091503 0.00870358 -5.77705e-05 0.00893854 1.57832e-07 271.958 
-0.93 -0.29 -1.02092 3.20706 0.00910382 0.00872505 -9.09998e-05 0.00892245 1.5747e-07 272.092 
-0.83 -0.31 -2.82967 3.22365 0.00915328 0.00872393 -5.28881e-05 0.00895418 1.58009e-07 272.128 
-0.91 -0.29 -1.22113 3.53067 0.00909683 0.0086989 -8.07796e-05 0.00890822 1.57333e-07 271.896 
-0.99 -0.27 -0.133439 3.41908 0.00908688 0.00875847 -0.000109763 0.00893968 1.57961e-07 271.77 
-0.81 -0.31 -3.30449 2.99125 0.0091594 0.00871742 -5.79915e-05 0.00895555 1.58097e-07 272.019 
-0.89 -0.29 -1.64844 3.49352 0.00911427 0.00870874 -7.65872e-05 0.00892275 1.57568e-07 271.932 
-0.97 -0.27 -0.480514 3.45405 0.00909118 0.00872974 -0.000105084 0.00892644 1.57577e-07 272.029 
-0.79 -0.31 -3.75824 2.77975 0.00916391 0.00872934 -5.11248e-05 0.00895754 1.58256e-07 271.805 
-0.87 -0.29 -2.11972 3.53968 0.00913094 0.00871943 -5.90084e-05 0.00893565 1.57815e-07 271.899 
-0.95 -0.27 -0.696589 3.53333 0.00909617 0.00871776 -0.000101792 0.0089206 1.57442e-07 272.085 
-0.77 -0.31 -4.11688 2.97899 0.00916599 0.0087428 -4.94925e-05 0.00895655 1.58327e-07 271.653 
-0.85 -0.29 -2.7097 3.32125 0.00914104 0.00870616 -6.06209e-05 0.00893325 1.57845e-07 271.775 
-0.93 -0.27 -0.967171 3.56182 0.00910519 0.00871072 -9.10458e-05 0.00891649 1.57283e-07 272.235 
-0.95 -0.33 -0.628525 2.56535 0.00911953 0.00872383 -7.27331e-05 0.00893147 1.57726e-07 271.926 
-0.93 -0.33 -1.05451 2.74505 0.00913126 0.00873134 -6.39426e-05 0.00893758 1.57781e-07 272.016 
-0.89 -0.33 -1.98806 2.73547 0.00914966 0.00871782 -5.47095e-05 0.00893845 1.57768e-07 272.065 
-0.83 -0.33 -2.9133 2.73985 0.00915175 0.0087164 -5.25965e-05 0.00895099 1.57972e-07 272.096 
-0.75 -0.31 -4.31764 2.81302 0.00917536 0.00876157 -4.42979e-05 0.00898418 1.58517e-07 272.166 
-0.75 -0.27 -4.47254 3.62772 0.00919557 0.00876525 -6.41707e-05 0.0089914 1.58766e-07 271.957 
-0.75 -0.25 -4.70691 3.75048 0.00917184 0.00876139 -7.09334e-05 0.00897288 1.5851e-07 271.835 
-0.75 -0.19 -4.43348 4.7869 0.00916756 0.00873792 -9.77293e-05 0.00896593 1.58553e-07 271.55 
-0.79 -0.33 -3.71726 2.38778 0.00915357 0.00873381 -5.11655e-05 0.00895686 1.58252e-07 271.792 
-0.75 -0.33 -4.371 2.55573 0.00916903 0.00876764 -3.14382e-05 0.00897854 1.58534e-07 271.966 
-0.81 -0.17 -3.6213 5.67662 0.00912964 0.00869462 -0.000109587 0.00892136 1.57739e-07 271.595 
-0.79 -0.17 -3.9265 5.7164 0.00914211 0.00873809 -0.000110764 0.00895452 1.5821e-07 271.793 
-0.75 -0.17 -4.39698 5.39409 0.00916721 0.00874018 -0.000103217 0.00896306 1.58351e-07 271.811 
-0.73 -0.31 -4.84165 2.8532 0.00919453 0.00877683 -4.76291e-05 0.00899657 1.58783e-07 272.085 
-0.73 -0.29 -4.69795 3.20714 0.00918659 0.00876947 -5.37378e-05 0.00899024 1.58788e-07 271.884 
-0.73 -0.27 -4.98379 3.42834 0.00920571 0.0087799 -6.66146e-05 0.00900292 1.58952e-07 271.987 
-0.73 -0.25 -4.66647 3.85221 0.00918021 0.00877242 -6.65745e-05 0.00898446 1.58778e-07 271.726 
-0.73 -0.23 -4.90698 4.08547 0.0091842 0.00877173 -7.4753e-05 0.00898695 1.58765e-07 271.824 
-0.73 -0.21 -4.9636 4.32307 0.00918398 0.00877015 -9.3946e-05 0.00898423 1.58619e-07 271.992 
-0.73 -0.19 -4.86145 4.79012 0.00916727 0.00877325 -0.000100804 0.00897599 1.58611e-07 271.757 
-0.79 -0.05 -3.24991 7.61689 0.00905383 0.00871198 -0.000155872 0.00889704 1.57457e-07 271.34 
-0.87 -0.03 -2.18717 8.3229 0.00900054 0.00862292 -0.00018043 0.00883242 1.56349e-07 271.278 
-0.83 -0.05 -2.66916 8.01896 0.009033 0.00867242 -0.000152933 0.00887432 1.56974e-07 271.48 
-0.91 -0.03 -1.67518 8.15432 0.00899463 0.00862284 -0.000192171 0.00883124 1.56228e-07 271.451 
-0.81 -0.05 -2.86197 7.67224 0.00904822 0.00869875 -0.000142223 0.00889105 1.57378e-07 271.293 
-0.89 -0.03 -1.80735 8.36735 0.00899346 0.00862293 -0.000179524 0.00882964 1.56279e-07 271.315 
-0.77 -0.05 -3.61528 7.30661 0.00906647 0.00873595 -0.000153985 0.00891937 1.57689e-07 271.621 
-0.85 -0.03 -2.47491 8.22789 0.00900477 0.00864575 -0.000175667 0.00884957 1.56552e-07 271.452 
-0.75 -0.05 -3.87635 7.07545 0.00907449 0.00875513 -0.000163199 0.00892265 1.57734e-07 271.643 
-0.83 -0.03 -2.7125 8.3728 0.00902292 0.00866459 -0.00016467 0.00886472 1.56917e-07 271.285 
-0.81 -0.03 -3.14636 7.89546 0.00903188 0.0086955 -0.000158726 0.00887723 1.57122e-07 271.312 
-0.79 -0.03 -3.17931 8.08399 0.00904704 0.00871755 -0.000155967 0.00889718 1.57496e-07 271.277 
-0.77 -0.03 -3.54697 7.54657 0.00905588 0.00874233 -0.000164239 0.00891048 1.57609e-07 271.487 
-0.95 -0.17 -0.792464 5.08989 0.00907895 0.00869868 -0.000145028 0.00889789 1.57324e-07 271.595 
-0.99 -0.15 -0.152432 4.94116 0.00903167 0.00870613 -0.000178244 0.00888924 1.57205e-07 271.536 
-0.89 -0.17 -2.03768 5.87467 0.0091059 0.00866795 -0.00012116 0.00890356 1.57316e-07 271.782 
-0.97 -0.15 -0.389302 5.4894 0.00905405 0.00870445 -0.000165229 0.0088906 1.57257e-07 271.489 
-0.95 -0.15 -0.942472 5.63906 0.00906515 0.00868154 -0.000155352 0.00888262 1.57096e-07 271.523 
-0.93 -0.15 -1.25796 5.88801 0.00907378 0.00866867 -0.000138608 0.0088865 1.57263e-07 271.352 
-0.83 -0.17 -3.11515 5.60191 0.00912881 0.00871061 -0.000104476 0.00893325 1.57819e-07 271.819 
-0.91 -0.15 -1.48575 6.26789 0.00908903 0.00867281 -0.000135016 0.00889689 1.57286e-07 271.63 
-0.99 -0.13 -0.271244 5.30477 0.00904591 0.0087093 -0.000192515 0.00888961 1.57225e-07 271.513 
-0.89 -0.15 -1.70499 6.2337 0.00908795 0.00865528 -0.000128375 0.00888788 1.5724e-07 271.435 
-0.97 -0.13 -0.538656 5.94846 0.00905492 0.00868291 -0.000174753 0.00888251 1.57166e-07 271.399 
-0.87 -0.15 -2.42415 6.05877 0.00909434 0.00868422 -0.000122547 0.00891072 1.57409e-07 271.839 
-0.95 -0.13 -0.921427 6.00325 0.00906615 0.00866765 -0.00016595 0.00888086 1.57185e-07 271.316 
-0.77 -0.17 -4.18791 5.21789 0.00915979 0.00873349 -0.00010723 0.00896137 1.5836e-07 271.744 
-0.85 -0.15 -2.6665 6.26978 0.00910421 0.00867917 -0.000113013 0.00890679 1.57489e-07 271.583 
-0.93 -0.13 -1.15524 6.10618 0.00907609 0.00866712 -0.000155436 0.00888722 1.57117e-07 271.627 
-0.83 -0.15 -2.99841 5.99667 0.00912281 0.0087038 -0.000120281 0.00892708 1.57796e-07 271.671 
-0.91 -0.13 -1.68211 6.59548 0.00907518 0.00865701 -0.00014599 0.00888857 1.57271e-07 271.403 
-0.99 -0.11 -0.091948 5.63507 0.00904156 0.00869531 -0.000187594 0.00888243 1.56956e-07 271.759 
-0.81 -0.15 -3.30896 6.16114 0.00913275 0.00870796 -0.000117604 0.00893485 1.57814e-07 271.876 
-0.89 -0.13 -1.98888 6.58885 0.00908848 0.00865708 -0.0001347 0.00888983 1.57387e-07 271.241 
-0.97 -0.11 -0.530702 6.24569 0.009034 0.00866993 -0.000185605 0.00887203 1.56896e-07 271.544 
-0.79 -0.15 -3.80379 5.85844 0.00913478 0.00872839 -0.000119968 0.00895048 1.58118e-07 271.829 
-0.87 -0.13 -2.31185 6.64544 0.00909889 0.00866867 -0.000130431 0.008904 1.57509e-07 271.462 
-0.95 -0.11 -0.797527 6.31503 0.00904245 0.00866105 -0.000173465 0.00887064 1.57059e-07 271.221 
-0.77 -0.15 -4.09601 5.59773 0.00913817 0.00873398 -0.000114093 0.00895233 1.58322e-07 271.535 
-0.85 -0.13 -2.6676 6.3646 0.00911782 0.00868533 -0.00012826 0.00891305 1.57595e-07 271.591 
-0.93 -0.11 -1.23235 6.59772 0.00905773 0.00865481 -0.00016657 0.00887402 1.57176e-07 271.122 
-0.75 -0.15 -4.47991 5.67444 0.00914387 0.0087368 -0.000110747 0.00895311 1.58364e-07 271.487 
-0.83 -0.13 -2.99648 6.49198 0.00912617 0.00869909 -0.00012795 0.00892665 1.57562e-07 272.061 
-0.91 -0.11 -1.51766 6.93752 0.00906554 0.00864629 -0.000154693 0.00887538 1.57139e-07 271.227 
-0.99 -0.09 -0.106175 5.91211 0.00899756 0.00868462 -0.000203384 0.00885595 1.56668e-07 271.448 
-0.81 -0.13 -3.49719 6.43836 0.00911866 0.0087044 -0.00011998 0.0089267 1.57973e-07 271.356 
-0.89 -0.11 -1.85069 6.95518 0.0090823 0.00865378 -0.000148009 0.00888345 1.57437e-07 270.959 
-0.97 -0.09 -0.392696 6.72796 0.00902049 0.00865992 -0.000190159 0.00886406 1.56884e-07 271.322 
-0.79 -0.13 -3.62791 6.37151 0.00912547 0.00872408 -0.00012227 0.00894168 1.57983e-07 271.793 
-0.87 -0.11 -2.22037 7.03808 0.00909479 0.00866049 -0.000147979 0.0088984 1.57476e-07 271.349 
-0.95 -0.09 -0.839698 6.65426 0.00903367 0.00865943 -0.000181704 0.00887071 1.56945e-07 271.42 
-0.77 -0.13 -4.10624 5.99642 0.00912586 0.00872964 -0.000115461 0.00894163 1.58072e-07 271.639 
-0.85 -0.11 -2.61066 6.77287 0.00909895 0.00868403 -0.000135026 0.00890461 1.57615e-07 271.298 
-0.93 -0.09 -1.15555 6.80518 0.00903873 0.00864192 -0.000179212 0.00885999 1.57062e-07 270.89 
-0.83 -0.11 -3.02101 7.03379 0.00909668 0.00868598 -0.000126386 0.0089086 1.57528e-07 271.571 
-0.91 -0.09 -1.35334 7.33218 0.00904381 0.0086356 -0.000162025 0.00886379 1.56997e-07 271.118 
-0.99 -0.07 -0.290663 6.2553 0.0089996 0.00867553 -0.000208091 0.00885385 1.56544e-07 271.598 
-0.81 -0.11 -3.37609 6.58375 0.00911365 0.00871152 -0.00012644 0.00892627 1.57668e-07 271.868 
-0.89 -0.09 -1.84228 7.26523 0.00905121 0.0086515 -0.00016149 0.00887145 1.57163e-07 271.066 
-0.97 -0.07 -0.415032 6.89679 0.0089911 0.00864827 -0.000206597 0.00884124 1.56483e-07 271.316 
-0.79 -0.11 -3.54277 6.69137 0.00911888 0.00871769 -0.00012786 0.00893632 1.58059e-07 271.501 
-0.87 -0.09 -2.07162 7.39773 0.00906439 0.00865275 -0.000156712 0.00888214 1.57364e-07 271.046 
-0.95 -0.07 -0.635867 7.04947 0.00899471 0.00865322 -0.000192156 0.00884486 1.5645e-07 271.485 
-0.77 -0.11 -3.97972 6.2163 0.00912806 0.00872264 -0.000127177 0.0089405 1.58027e-07 271.682 
-0.85 -0.09 -2.52945 7.20164 0.00907141 0.00866979 -0.000146631 0.0088863 1.57302e-07 271.28 
-0.93 -0.07 -1.083 7.20107 0.00900201 0.00862753 -0.000181242 0.00884153 1.56648e-07 271.039 
-0.75 -0.11 -4.42418 6.06957 0.00914248 0.00875331 -0.000128018 0.00895555 1.58344e-07 271.595 
-0.83 -0.09 -2.83235 7.23719 0.00908869 0.00868325 -0.000138448 0.00890425 1.57482e-07 271.517 
-0.91 -0.07 -1.54557 7.62424 0.00902112 0.00862884 -0.000177393 0.0088495 1.56675e-07 271.238 
-0.99 -0.05 0.0129621 6.57836 0.00897997 0.00866669 -0.000218787 0.00883824 1.56377e-07 271.408 
-0.81 -0.09 -3.22076 7.06382 0.00909539 0.00871478 -0.000139343 0.00891897 1.57765e-07 271.478 
-0.89 -0.07 -1.82519 7.56884 0.00903554 0.00864963 -0.000175759 0.00886372 1.56936e-07 271.221 
-0.97 -0.05 -0.53193 7.08657 0.00900299 0.00864555 -0.000209257 0.00884631 1.56585e-07 271.295 
-0.79 -0.09 -3.58987 6.86597 0.00909943 0.00871752 -0.000129214 0.00892556 1.57785e-07 271.645 
-0.87 -0.07 -2.27422 7.87017 0.00903589 0.00863749 -0.000158852 0.00885903 1.56804e-07 271.307 
-0.95 -0.05 -0.756729 7.43758 0.00900486 0.00863568 -0.000196015 0.00883933 1.564e-07 271.402 
-0.77 -0.09 -3.78091 6.79955 0.00909649 0.00872125 -0.000128473 0.0089297 1.57887e-07 271.594 
-0.85 -0.07 -2.55846 7.53918 0.00904362 0.00865835 -0.000152689 0.00887469 1.5694e-07 271.55 
-0.93 -0.05 -1.18959 7.68705 0.0090015 0.00862229 -0.000184275 0.00883548 1.56431e-07 271.23 
-0.75 -0.09 -4.14841 6.43442 0.00909319 0.00875077 -0.000135747 0.00893731 1.57977e-07 271.67 
-0.83 -0.07 -2.8938 7.64972 0.00905025 0.00868582 -0.000146428 0.00888153 1.57147e-07 271.401 
-0.91 -0.05 -1.44435 7.9586 0.00900287 0.00862949 -0.00018669 0.008839 1.56498e-07 271.222 
-0.99 -0.03 -0.230473 6.92704 0.00895378 0.00865652 -0.000229764 0.00881987 1.56054e-07 271.405 
-0.81 -0.07 -3.22805 7.53138 0.00905228 0.00870194 -0.000148599 0.00889644 1.57342e-07 271.52 
-0.89 -0.05 -1.78692 8.01168 0.009005 0.00863243 -0.000178495 0.00884328 1.56616e-07 271.149 
-0.97 -0.03 -0.449187 7.48218 0.00895669 0.00862701 -0.000213402 0.00881276 1.56078e-07 271.144 