ITEM: TIMESTEP
974500
ITEM: NUMBER OF CELLS
5000
ITEM: BOX BOUNDS ss ss pp
-1 1
-0.5 0.5
-0.5 0.5
ITEM: CELLS xc yc f_U[*] f_V[*] f_Tau[1] f_Tau[2] f_Tau[3] f_Press[*] f_Mrho[*] f_Ttra[*] 
-0.99 -0.49 -0.188555 0.304061 0.00899108 0.00874719 -2.90312e-05 0.00887775 1.56633e-07 272.176 
-0.97 -0.49 -0.549936 0.0563146 0.00898871 0.00874783 -3.04672e-05 0.00887943 1.56573e-07 272.332 
-0.95 -0.49 -0.635704 0.00556022 0.00899015 0.00874067 -3.30662e-05 0.00887459 1.5661e-07 272.119 
-0.93 -0.49 -0.834025 0.154389 0.00899991 0.00874994 -2.21048e-05 0.00888227 1.56761e-07 272.093 
-0.91 -0.49 -1.13381 0.0828525 0.00900601 0.00872689 -2.11566e-05 0.0088704 1.56602e-07 272.005 
-0.99 -0.47 -0.209872 0.595781 0.00901811 0.00877077 -1.42221e-05 0.00890323 1.56995e-07 272.329 
-0.89 -0.49 -1.53386 0.244782 0.00902608 0.0087429 -2.65515e-05 0.00888688 1.5685e-07 272.079 
-0.97 -0.47 -0.427554 0.333269 0.00901526 0.00874605 -3.33135e-05 0.00889431 1.56786e-07 272.418 
-0.87 -0.49 -1.74983 0.0146876 0.00904731 0.00876977 -1.44295e-05 0.00890718 1.57149e-07 272.182 
-0.95 -0.47 -0.826808 0.333333 0.00902243 0.00874548 -3.34753e-05 0.00889331 1.56787e-07 272.386 
-0.85 -0.49 -1.92147 0.127982 0.0090488 0.0087531 -6.66326e-06 0.0089001 1.56872e-07 272.445 
-0.93 -0.47 -1.05374 0.259787 0.00902542 0.00874237 -3.76521e-05 0.00889017 1.56731e-07 272.386 
-0.83 -0.49 -1.92903 -0.0517682 0.00905342 0.00876435 -4.51636e-07 0.00891464 1.57129e-07 272.444 
-0.91 -0.47 -1.32429 0.634093 0.00904011 0.00873428 -3.43593e-05 0.00889125 1.56931e-07 272.073 
-0.99 -0.45 -0.103314 0.899795 0.00904405 0.00877124 -2.50289e-05 0.00891713 1.5725e-07 272.31 
-0.81 -0.49 -2.13688 0.282662 0.00906069 0.0087709 1.34361e-05 0.00892255 1.57296e-07 272.396 
-0.89 -0.47 -1.6849 0.449386 0.00904095 0.00873923 -3.39774e-05 0.00888851 1.56975e-07 271.913 
-0.97 -0.45 -0.386506 0.687463 0.00904989 0.00876094 -3.44461e-05 0.00891193 1.57112e-07 272.391 
-0.79 -0.49 -2.50354 0.0527604 0.00906782 0.00877794 1.32996e-05 0.00892911 1.5747e-07 272.295 
-0.87 -0.47 -1.92807 0.248273 0.00904377 0.00874913 -2.4659e-05 0.00890612 1.57097e-07 272.239 
-0.95 -0.45 -0.766596 0.755286 0.0090518 0.00874613 -3.88564e-05 0.00890517 1.56944e-07 272.475 
-0.77 -0.49 -2.4994 -0.0291414 0.00907136 0.0087964 2.25818e-05 0.00894585 1.57682e-07 272.439 
-0.85 -0.47 -2.09638 0.272764 0.00905501 0.00875306 -1.10413e-05 0.00891301 1.57123e-07 272.406 
-0.93 -0.45 -1.27584 0.497876 0.00906155 0.00873845 -4.61227e-05 0.00890373 1.57108e-07 272.148 
-0.83 -0.47 -2.43662 0.148881 0.00906267 0.00875469 -8.96496e-06 0.00892034 1.57242e-07 272.423 
-0.91 -0.45 -1.39251 0.811242 0.00906097 0.00873959 -3.95998e-05 0.0089001 1.57202e-07 271.874 
-0.99 -0.43 -0.17104 1.14743 0.00906663 0.00876821 -3.61766e-05 0.00893367 1.57727e-07 271.99 
-0.81 -0.47 -2.59562 0.506205 0.0090752 0.00876056 -1.84109e-06 0.00892981 1.57449e-07 272.354 
-0.89 -0.45 -1.77425 0.777279 0.00907387 0.00872876 -3.89375e-05 0.00890037 1.57183e-07 271.915 
-0.97 -0.43 -0.516162 1.063 0.00908129 0.00877273 -3.78657e-05 0.00893634 1.57571e-07 272.342 
-0.79 -0.47 -2.87908 0.329821 0.00908905 0.0087718 1.05152e-05 0.00894593 1.57742e-07 272.338 
-0.87 -0.45 -2.09003 0.549435 0.0090772 0.00873968 -2.38235e-05 0.00891313 1.57201e-07 272.274 
-0.95 -0.43 -0.756587 0.997349 0.00908701 0.00875033 -4.70816e-05 0.00892196 1.57441e-07 272.128 
-0.77 -0.47 -3.21541 0.0921144 0.00910016 0.00879127 1.13397e-05 0.00895459 1.57939e-07 272.262 
-0.85 -0.45 -2.34808 0.395646 0.00908654 0.008744 -2.05094e-05 0.00892309 1.57282e-07 272.437 
-0.93 -0.43 -0.922063 0.931874 0.0090868 0.00873907 -4.18529e-05 0.00891768 1.57352e-07 272.152 
-0.75 -0.47 -3.28034 0.427614 0.00910522 0.00879957 1.7512e-05 0.00895744 1.57751e-07 272.674 
-0.83 -0.45 -2.62647 0.45037 0.00909835 0.00875686 -1.86994e-05 0.0089354 1.57612e-07 272.242 
-0.91 -0.43 -1.48171 1.05919 0.00908562 0.00873782 -4.43696e-05 0.00891074 1.57284e-07 272.057 
-0.99 -0.41 -0.211696 1.56966 0.00908587 0.00876899 -5.10181e-05 0.0089407 1.57757e-07 272.153 
-0.81 -0.45 -2.93231 0.834836 0.00909538 0.00874527 -1.19658e-05 0.00893231 1.57523e-07 272.302 
-0.89 -0.43 -1.49952 1.07756 0.00907663 0.0087226 -4.1806e-05 0.00890283 1.57199e-07 271.962 
-0.97 -0.41 -0.403583 1.18842 0.00909573 0.00877087 -5.0313e-05 0.00893925 1.57579e-07 272.417 
-0.79 -0.45 -3.0995 0.60735 0.00910285 0.0087647 -3.25594e-07 0.0089443 1.57751e-07 272.273 
-0.87 -0.43 -1.81565 0.769268 0.0090871 0.00873187 -4.02437e-05 0.00891937 1.57314e-07 272.269 
-0.95 -0.41 -0.546547 1.26129 0.00910276 0.00875977 -4.5717e-05 0.00894168 1.57681e-07 272.314 
-0.77 -0.45 -3.45023 0.426236 0.00911298 0.00878453 7.78543e-06 0.00895615 1.57873e-07 272.424 
-0.85 -0.43 -2.18619 0.831384 0.00910551 0.00874298 -3.12807e-05 0.00893121 1.57563e-07 272.199 
-0.93 -0.41 -1.10216 1.38256 0.00909696 0.00872559 -4.4798e-05 0.00892458 1.57513e-07 272.084 
-0.75 -0.45 -3.72089 0.498394 0.00911196 0.00879111 1.39233e-05 0.00895711 1.57963e-07 272.296 
-0.83 -0.43 -2.62838 0.807521 0.00910601 0.00874532 -1.76082e-05 0.00893236 1.57521e-07 272.306 
-0.91 -0.41 -1.26094 1.29624 0.00910261 0.00873933 -3.90486e-05 0.00892758 1.57672e-07 271.9 
-0.99 -0.39 -0.154566 1.82749 0.00908907 0.00877365 -5.25409e-05 0.00894532 1.57911e-07 272.027 
-0.81 -0.43 -3.04396 1.01612 0.00911614 0.00874213 -1.67842e-05 0.00894231 1.57752e-07 272.21 
-0.89 -0.41 -1.60756 1.28344 0.00910585 0.00873171 -4.37992e-05 0.00892308 1.57392e-07 272.246 
-0.97 -0.39 -0.494763 1.40026 0.00909558 0.00877227 -5.31926e-05 0.00894133 1.57786e-07 272.122 
-0.79 -0.43 -3.38886 0.877152 0.00912613 0.00875563 -8.63849e-06 0.00895149 1.57937e-07 272.171 
-0.87 -0.41 -2.02065 1.24862 0.00910508 0.00872449 -4.27124e-05 0.00892664 1.57393e-07 272.353 
-0.95 -0.39 -0.866952 1.54036 0.00909092 0.00874721 -4.86651e-05 0.00892505 1.57441e-07 272.222 
-0.77 -0.43 -3.65082 0.704313 0.00913317 0.00877602 3.94801e-06 0.0089642 1.58131e-07 272.224 
-0.85 -0.41 -2.58942 1.18522 0.00910034 0.00873622 -3.90389e-05 0.00893033 1.57629e-07 272.058 
-0.93 -0.39 -0.779898 1.67259 0.00910291 0.00872948 -4.29654e-05 0.00892448 1.57509e-07 272.088 
-0.83 -0.41 -2.76583 1.18014 0.00911497 0.00873476 -3.2186e-05 0.00893142 1.57596e-07 272.148 
-0.91 -0.39 -1.23487 1.67728 0.00910818 0.0087386 -4.95723e-05 0.00893346 1.57636e-07 272.141 
-0.99 -0.37 0.0789672 2.07547 0.00908595 0.00878507 -6.12205e-05 0.00894767 1.58033e-07 271.89 
-0.81 -0.41 -2.98375 1.36144 0.0091237 0.00873475 -2.07542e-05 0.00893831 1.57745e-07 272.101 
-0.89 -0.39 -1.56289 1.58903 0.00911318 0.00873511 -4.74339e-05 0.00893614 1.57629e-07 272.235 
-0.97 -0.37 -0.370965 1.9253 0.00909186 0.00875769 -5.96311e-05 0.00893845 1.57754e-07 272.09 
-0.79 -0.41 -3.31285 1.07887 0.00913518 0.00875108 -1.7997e-05 0.00895574 1.58027e-07 272.144 
-0.87 -0.39 -1.92045 1.63919 0.00911678 0.00871399 -4.57457e-05 0.0089289 1.57609e-07 272.049 
-0.95 -0.37 -0.730252 1.72336 0.00910777 0.00874676 -5.29298e-05 0.00893641 1.5777e-07 272.001 
-0.77 -0.41 -3.71578 1.13463 0.00914101 0.00876866 -1.54514e-05 0.00896821 1.58264e-07 272.117 
-0.85 -0.39 -2.2191 1.64406 0.00912928 0.00873792 -4.13832e-05 0.00894484 1.57973e-07 271.908 
-0.93 -0.37 -1.22904 1.8696 0.0091135 0.00873207 -5.68883e-05 0.00893402 1.577e-07 272.048 
-0.75 -0.41 -4.00103 1.02773 0.00915885 0.0087899 -6.20807e-06 0.00898562 1.58485e-07 272.265 
-0.83 -0.39 -2.6486 1.48248 0.00912553 0.00872394 -4.09278e-05 0.00893122 1.57697e-07 271.968 
-0.91 -0.37 -1.37168 1.939 0.00912582 0.00873436 -5.91064e-05 0.00893965 1.57662e-07 272.284 
-0.99 -0.35 -0.184356 2.1501 0.00910121 0.00877921 -7.5364e-05 0.00895163 1.58175e-07 271.765 
-0.81 -0.39 -2.99622 1.56223 0.00913063 0.00873038 -3.56407e-05 0.00894071 1.57707e-07 272.239 
-0.89 -0.37 -1.69533 1.95871 0.00913209 0.00873137 -4.92338e-05 0.00894105 1.57891e-07 271.933 
-0.97 -0.35 -0.333144 2.42214 0.00910965 0.00875166 -6.60791e-05 0.00894391 1.57871e-07 272.054 
-0.79 -0.39 -3.26618 1.53471 0.00914041 0.00873883 -2.53223e-05 0.0089544 1.58086e-07 272.003 
-0.87 -0.37 -2.16444 2.13207 0.00913133 0.00871553 -4.99247e-05 0.00893362 1.57618e-07 272.177 
-0.95 -0.35 -0.689913 2.02225 0.00911548 0.0087404 -6.43843e-05 0.00893521 1.57736e-07 272.023 
-0.77 -0.39 -3.75726 1.54158 0.00915208 0.00877505 -1.87092e-05 0.00897812 1.58424e-07 272.141 
-0.85 -0.37 -2.56874 2.00673 0.00913474 0.00873001 -5.11674e-05 0.00893891 1.57817e-07 271.994 
-0.93 -0.35 -1.10314 2.29726 0.00912121 0.00873609 -6.47053e-05 0.00893829 1.57774e-07 272.05 
-0.83 -0.37 -2.99716 1.79985 0.00914269 0.00871851 -4.08761e-05 0.00893312 1.57784e-07 271.876 
-0.91 -0.35 -1.51259 2.31563 0.00911624 0.00873248 -5.4488e-05 0.00892799 1.57581e-07 272.07 
-0.81 -0.37 -3.26218 1.70104 0.00914833 0.00872687 -3.44932e-05 0.00894952 1.57948e-07 272.092 
-0.89 -0.35 -1.92038 2.44903 0.00911705 0.00872272 -5.56893e-05 0.00892547 1.57542e-07 272.06 
-0.79 -0.37 -3.61588 1.96567 0.009148 0.00873482 -3.50591e-05 0.00895998 1.58266e-07 271.863 
-0.87 -0.35 -2.3262 2.319 0.0091345 0.00872033 -5.60305e-05 0.0089375 1.57742e-07 272.082 
-0.77 -0.37 -3.86582 2.01308 0.00915856 0.00877287 -2.84103e-05 0.00897569 1.58317e-07 272.252 
-0.85 -0.35 -2.71483 2.55351 0.00914487 0.00872002 -5.38038e-05 0.0089373 1.57913e-07 271.78 
-0.83 -0.35 -3.09168 2.12692 0.00914507 0.00871349 -4.69977e-05 0.00893537 1.57891e-07 271.76 
-0.81 -0.35 -3.46199 2.09221 0.00915282 0.00872653 -4.78105e-05 0.00895406 1.58053e-07 272.049 
-0.79 -0.35 -3.78152 2.23863 0.00917083 0.00873537 -4.34499e-05 0.00896422 1.58352e-07 271.843 
-0.77 -0.35 -3.96092 2.28339 0.009179 0.00875581 -3.71641e-05 0.00897748 1.58357e-07 272.238 
-0.75 -0.35 -4.22679 2.24545 0.00919041 0.00878076 -2.69745e-05 0.00899552 1.58704e-07 272.187 
-0.75 -0.49 -2.74093 0.237511 0.0090791 0.00879946 2.39402e-05 0.00894167 1.57647e-07 272.373 
-0.75 -0.43 -3.86812 0.747746 0.00914231 0.00879133 1.10376e-06 0.00897597 1.5822e-07 272.427 
-0.75 -0.39 -4.43571 1.41997 0.00915516 0.00878361 -2.27826e-05 0.00898275 1.58464e-07 272.212 
-0.75 -0.37 -4.12805 1.89053 0.00916026 0.00877795 -1.97714e-05 0.00897884 1.58414e-07 272.181 
-0.77 -0.33 -3.91064 2.55719 0.00916508 0.00874736 -4.71834e-05 0.00896326 1.58392e-07 271.747 
-0.73 -0.49 -3.10464 0.193327 0.00908443 0.00881479 2.48188e-05 0.00895718 1.57913e-07 272.385 
-0.73 -0.47 -3.2941 0.28419 0.00910845 0.00880566 2.49886e-05 0.00897092 1.58153e-07 272.39 
-0.73 -0.45 -3.86145 0.443594 0.00912498 0.0088049 1.37932e-05 0.00897456 1.58298e-07 272.25 
-0.73 -0.43 -4.3236 0.914869 0.00914962 0.0088042 2.33897e-06 0.00898734 1.58422e-07 272.425 
-0.73 -0.41 -4.35453 1.18111 0.00916947 0.00880391 -6.57806e-06 0.00899715 1.58699e-07 272.245 
-0.73 -0.39 -4.49385 1.49247 0.00916406 0.00879571 -9.03977e-06 0.00898686 1.58549e-07 272.192 
-0.73 -0.37 -4.65541 1.77402 0.00916313 0.00878207 -2.38576e-05 0.00897993 1.58513e-07 272.044 
-0.73 -0.35 -4.59422 2.0418 0.00918756 0.0087821 -2.31484e-05 0.00898888 1.58616e-07 272.138 
-0.81 -0.29 -3.28278 3.31052 0.0091578 0.0087146 -6.62753e-05 0.00894323 1.58026e-07 271.766 
-0.89 -0.27 -1.79642 3.82219 0.00912792 0.00870077 -8.87941e-05 0.00893122 1.57704e-07 271.955 
-0.97 -0.25 -0.47919 3.76581 0.00909359 0.00872121 -0.000112008 0.00891899 1.5762e-07 271.729 
-0.83 -0.29 -2.86844 3.5071 0.00914775 0.00871869 -7.02867e-05 0.00894286 1.57838e-07 272.079 
-0.91 -0.27 -1.43259 3.8907 0.00912798 0.00870736 -8.8563e-05 0.00893118 1.57687e-07 271.984 
-0.99 -0.25 -0.210227 3.81985 0.009093 0.00875743 -0.000119135 0.00893887 1.57979e-07 271.715 
-0.79 -0.29 -3.61259 3.19649 0.00916981 0.00872407 -5.99421e-05 0.00895411 1.5819e-07 271.815 
-0.87 -0.27 -2.33469 3.95919 0.00913421 0.00870706 -7.2603e-05 0.00893887 1.57882e-07 271.881 
-0.95 -0.25 -0.74722 3.77409 0.00910443 0.00871895 -0.000105227 0.00892847 1.57792e-07 271.72 
-0.77 -0.29 -3.97246 3.28565 0.00918062 0.00873946 -5.03969e-05 0.00897075 1.58442e-07 271.888 
-0.85 -0.27 -2.64081 3.69048 0.0091447 0.00870959 -7.23254e-05 0.00893861 1.57891e-07 271.859 
-0.93 -0.25 -1.19873 4.10894 0.00910356 0.00870726 -0.000109718 0.00892187 1.57614e-07 271.826 
-0.75 -0.29 -4.42394 3.19451 0.00918485 0.00876199 -5.64184e-05 0.00898703 1.58661e-07 272.005 
-0.83 -0.27 -3.0406 3.6953 0.0091543 0.00872414 -7.17523e-05 0.00895093 1.58022e-07 272.007 
-0.91 -0.25 -1.54193 4.24342 0.00911435 0.00869588 -9.96297e-05 0.00891945 1.57569e-07 271.83 
-0.99 -0.23 -0.0704899 4.10974 0.00906141 0.00874621 -0.000127536 0.00891952 1.57619e-07 271.747 
-0.81 -0.27 -3.46541 3.73222 0.00915733 0.00870987 -7.98316e-05 0.00894419 1.58029e-07 271.791 
-0.89 -0.25 -2.01029 4.18618 0.00912522 0.00869301 -8.69052e-05 0.00893021 1.57642e-07 272.032 
-0.97 -0.23 -0.371942 4.04112 0.00908227 0.00872786 -0.00012115 0.00891846 1.57646e-07 271.667 
-0.79 -0.27 -4.05001 3.64744 0.0091699 0.00871236 -7.1133e-05 0.00894512 1.58239e-07 271.458 
-0.87 -0.25 -2.16361 4.34031 0.00913703 0.00870192 -8.70536e-05 0.00893997 1.57958e-07 271.784 
-0.95 -0.23 -0.890706 4.25738 0.00909073 0.00870926 -0.000120932 0.00891439 1.57523e-07 271.755 
-0.77 -0.27 -4.34399 3.61387 0.00917667 0.00874058 -6.13519e-05 0.00897099 1.58547e-07 271.714 
-0.85 -0.25 -2.65501 4.10245 0.00915219 0.00871085 -8.694e-05 0.00894412 1.5791e-07 271.993 
-0.93 -0.23 -1.19 4.44897 0.0091049 0.00870665 -0.000112238 0.00892305 1.57537e-07 271.995 
-0.83 -0.25 -3.08372 4.07265 0.00916245 0.00871192 -8.20436e-05 0.00894003 1.58086e-07 271.566 
-0.91 -0.23 -1.53323 4.49726 0.0091078 0.00868208 -0.000103533 0.00891933 1.57464e-07 272.007 
-0.99 -0.21 -0.0196863 4.23978 0.00909088 0.00874607 -0.000133117 0.00893107 1.57881e-07 271.647 
-0.81 -0.25 -3.31602 4.19879 0.00916694 0.00872377 -7.57383e-05 0.00895407 1.58241e-07 271.727 
-0.89 -0.23 -1.89687 4.78832 0.00912017 0.00868996 -0.000100868 0.0089239 1.57583e-07 271.942 
-0.97 -0.21 -0.21052 4.40472 0.00909483 0.00870911 -0.000131747 0.00891338 1.57598e-07 271.595 
-0.79 -0.25 -3.78226 4.22152 0.00915289 0.00870223 -7.82545e-05 0.00893724 1.58099e-07 271.459 
-0.87 -0.23 -2.46636 4.52327 0.00913373 0.0087019 -0.000103407 0.00893109 1.578e-07 271.787 
-0.95 -0.21 -0.530825 4.67823 0.00910247 0.00871226 -0.000124179 0.00892305 1.57556e-07 271.962 
-0.77 -0.25 -4.31197 3.83544 0.00916152 0.00873266 -7.75727e-05 0.00895388 1.58276e-07 271.661 
-0.85 -0.23 -2.66585 4.6192 0.00913724 0.00870735 -9.12836e-05 0.00893101 1.57781e-07 271.817 
-0.93 -0.21 -1.16067 4.81929 0.00910244 0.00869329 -0.000120162 0.00891467 1.5761e-07 271.615 
-0.83 -0.23 -3.08407 4.44971 0.00913221 0.00870022 -8.40537e-05 0.00892453 1.57768e-07 271.641 
-0.91 -0.21 -1.45914 4.79095 0.0091143 0.00868166 -0.00011492 0.00891748 1.5755e-07 271.802 
-0.99 -0.19 -0.215507 4.43402 0.00907995 0.00873644 -0.000148867 0.00892305 1.57689e-07 271.733 
-0.81 -0.23 -3.56035 4.44036 0.00914257 0.00871561 -8.10314e-05 0.00894268 1.57986e-07 271.818 
-0.89 -0.21 -1.79326 5.26011 0.00912594 0.00869512 -0.000113209 0.00893239 1.57689e-07 272.018 
-0.97 -0.19 -0.592234 4.7602 0.00908828 0.00870342 -0.00013786 0.00890701 1.57506e-07 271.559 
-0.79 -0.23 -3.75569 4.63627 0.00916451 0.00871236 -7.96053e-05 0.00895144 1.58177e-07 271.757 
-0.87 -0.21 -2.12952 4.98349 0.00912827 0.00868522 -0.000109581 0.00892327 1.57812e-07 271.527 
-0.95 -0.19 -0.830917 5.00038 0.00910178 0.00870881 -0.000131365 0.00891512 1.57547e-07 271.736 
-0.77 -0.23 -4.11863 4.33756 0.00916926 0.00873409 -8.95803e-05 0.00896225 1.58376e-07 271.743 
-0.85 -0.21 -2.75092 4.97177 0.00913825 0.00869567 -9.517e-05 0.00893186 1.57799e-07 271.811 
-0.93 -0.19 -0.865987 5.24326 0.00911114 0.00869016 -0.000124049 0.00891766 1.57595e-07 271.731 
-0.75 -0.23 -4.6099 4.01063 0.00917856 0.00875128 -8.71954e-05 0.00897456 1.58482e-07 271.935 
-0.83 -0.21 -3.14686 4.81826 0.00915571 0.00870326 -9.241e-05 0.00894144 1.57884e-07 271.956 
-0.91 -0.19 -1.38782 5.26673 0.00910849 0.00867397 -0.000123148 0.00890723 1.5743e-07 271.697 
-0.81 -0.21 -3.41059 4.77805 0.00915868 0.00871415 -8.63085e-05 0.00895343 1.58263e-07 271.669 
-0.89 -0.19 -1.8898 5.61648 0.00911448 0.00868994 -0.000116192 0.00892024 1.57559e-07 271.872 
-0.79 -0.21 -3.76324 4.99414 0.00915172 0.00871247 -9.26353e-05 0.00894696 1.58212e-07 271.56 
-0.87 -0.19 -2.34816 5.39172 0.00911544 0.00868291 -0.000108224 0.0089164 1.57636e-07 271.622 
-0.77 -0.21 -4.25609 4.79893 0.00916308 0.00874048 -9.44389e-05 0.00896167 1.58392e-07 271.698 
-0.85 -0.19 -2.59884 5.37894 0.00912023 0.00868526 -0.000112566 0.00892096 1.57716e-07 271.623 
-0.75 -0.21 -4.66347 4.36563 0.00916584 0.00874262 -9.41458e-05 0.00896689 1.58452e-07 271.753 
-0.83 -0.19 -2.90525 5.18346 0.00912065 0.0086998 -0.000103982 0.00892615 1.57759e-07 271.707 
-0.81 -0.19 -3.27189 5.17937 0.00914149 0.00870038 -9.80811e-05 0.00893293 1.57926e-07 271.626 
-0.79 -0.19 -3.84791 5.31678 0.00916228 0.00873077 -9.69845e-05 0.00896189 1.58308e-07 271.849 
-0.77 -0.19 -4.10567 5.30197 0.00916973 0.00873698 -0.000103806 0.00896689 1.58459e-07 271.742 
-0.99 -0.33 -0.134815 2.46543 0.00909657 0.00877382 -8.44178e-05 0.00894633 1.5799e-07 271.923 
-0.97 -0.33 -0.434754 2.50686 0.0091105 0.00874901 -8.05067e-05 0.00894095 1.5784e-07 272.017 
-0.91 -0.33 -1.67309 2.83405 0.00914609 0.00872644 -6.50199e-05 0.00893801 1.57777e-07 272.037 
-0.99 -0.31 -0.166252 2.80466 0.00908138 0.0087609 -9.51251e-05 0.00893274 1.57753e-07 271.917 
-0.97 -0.31 -0.373857 2.77355 0.00909563 0.00874631 -8.74817e-05 0.00893261 1.57923e-07 271.622 
-0.87 -0.33 -2.26166 2.77915 0.0091495 0.00872473 -6.3348e-05 0.00894694 1.57952e-07 272.006 
-0.95 -0.31 -0.893814 3.09228 0.00910443 0.0087264 -8.57118e-05 0.00892832 1.57627e-07 272 
-0.85 -0.33 -2.39778 2.7052 0.00914346 0.00870983 -5.46536e-05 0.00893737 1.57697e-07 272.155 
-0.93 -0.31 -1.2171 3.09222 0.00912324 0.00873238 -8.3567e-05 0.00894011 1.57818e-07 272.03 
-0.91 -0.31 -1.47712 3.0727 0.0091372 0.00871591 -7.1291e-05 0.00894422 1.57753e-07 272.266 
-0.99 -0.29 -0.16438 3.09168 0.00908202 0.00876565 -0.000103101 0.00893959 1.57895e-07 271.881 
-0.81 -0.33 -3.4461 2.49198 0.00916005 0.00872521 -5.15117e-05 0.00895715 1.58145e-07 271.985 
-0.89 -0.31 -1.73346 3.03633 0.00913994 0.00871805 -6.12311e-05 0.00894542 1.57867e-07 272.107 
-0.97 -0.29 -0.540538 3.15605 0.00909047 0.00873297 -0.000100449 0.00892475 1.57624e-07 271.897 
-0.87 -0.31 -2.17805 3.08028 0.00914494 0.00872219 -6.32702e-05 0.00894112 1.57924e-07 271.878 
-0.95 -0.29 -0.745836 3.38847 0.00910508 0.00872406 -9.80937e-05 0.00892845 1.576e-07 272.051 
-0.85 -0.31 -2.54037 2.86165 0.00914921 0.00870559 -5.99172e-05 0.00893918 1.57846e-07 271.953 
-0.93 -0.29 -1.07903 3.2809 0.00910845 0.00872403 -8.83342e-05 0.00892462 1.57531e-07 272.054 
-0.83 -0.31 -2.79166 3.21958 0.0091572 0.0087206 -5.51516e-05 0.00895185 1.57996e-07 272.081 
-0.91 -0.29 -1.2639 3.49867 0.00910602 0.00870357 -8.10924e-05 0.00891445 1.57431e-07 271.916 
-0.99 -0.27 -0.106081 3.44175 0.00909299 0.00875954 -0.000113213 0.00894326 1.58064e-07 271.703 
-0.81 -0.31 -3.12731 2.9504 0.00915771 0.00871684 -5.88067e-05 0.00895407 1.581e-07 271.969 
-0.89 -0.29 -1.67821 3.45831 0.00912184 0.00871425 -7.67694e-05 0.00893038 1.57649e-07 272.025 
-0.97 -0.27 -0.531679 3.45397 0.00909717 0.00873109 -0.000109348 0.00893061 1.57695e-07 271.953 
-0.79 -0.31 -3.6363 2.73347 0.00916172 0.00873052 -5.39061e-05 0.00895639 1.58265e-07 271.755 
-0.87 -0.29 -2.08981 3.47543 0.00913441 0.00871528 -6.18612e-05 0.00893769 1.57863e-07 271.879 
-0.95 -0.27 -0.717088 3.63704 0.00909884 0.0087171 -0.000102232 0.00892283 1.57531e-07 271.999 
-0.77 -0.31 -4.16045 2.90463 0.00916296 0.00874037 -5.08974e-05 0.00895394 1.58271e-07 271.672 
-0.85 -0.29 -2.62467 3.292 0.00914168 0.00870615 -6.46132e-05 0.00893216 1.57801e-07 271.818 
-0.93 -0.27 -0.968957 3.58149 0.00911072 0.00871104 -9.39458e-05 0.00891944 1.57334e-07 272.236 
-0.95 -0.33 -0.720619 2.57244 0.00911974 0.00872833 -7.07249e-05 0.0089363 1.57808e-07 271.932 
-0.93 -0.33 -1.12957 2.69679 0.00913295 0.00873705 -6.40281e-05 0.00894079 1.57846e-07 272.003 
-0.89 -0.33 -2.14144 2.68467 0.00915376 0.00872188 -5.85263e-05 0.0089436 1.57828e-07 272.118 
-0.83 -0.33 -2.86258 2.74201 0.00914754 0.00871099 -5.56447e-05 0.00894515 1.57906e-07 272.031 
-0.75 -0.31 -4.45662 2.83617 0.00916946 0.00875962 -4.64914e-05 0.00897815 1.5845e-07 272.097 
-0.75 -0.27 -4.52444 3.64096 0.0091915 0.00876111 -6.45011e-05 0.00898537 1.58698e-07 271.892 
-0.75 -0.25 -4.55367 3.75748 0.00917603 0.00876226 -6.98624e-05 0.00897333 1.58485e-07 271.892 
-0.75 -0.19 -4.43534 4.74476 0.00916599 0.00873776 -9.59546e-05 0.00896593 1.58461e-07 271.709 
-0.79 -0.33 -3.66053 2.31178 0.00915817 0.00873484 -5.14448e-05 0.00895833 1.5826e-07 271.823 
-0.75 -0.33 -4.3493 2.55348 0.00917074 0.00876647 -3.55717e-05 0.00897748 1.58581e-07 271.852 
-0.81 -0.17 -3.57074 5.62585 0.00912757 0.00869221 -0.000114083 0.00892069 1.57716e-07 271.614 
-0.79 -0.17 -3.84723 5.76806 0.0091404 0.00873538 -0.000112543 0.00895401 1.5817e-07 271.846 
-0.75 -0.17 -4.51397 5.38009 0.00916194 0.0087398 -0.000103971 0.0089625 1.58251e-07 271.966 
-0.73 -0.31 -4.80946 2.88832 0.00918784 0.00877866 -4.65706e-05 0.00899455 1.58776e-07 272.034 
-0.73 -0.29 -4.73652 3.22548 0.00918468 0.00877132 -5.41404e-05 0.00898985 1.58738e-07 271.958 
-0.73 -0.27 -4.92917 3.39888 0.00920185 0.00877765 -6.74988e-05 0.00899948 1.58888e-07 271.993 
-0.73 -0.25 -4.69692 3.7521 0.00918241 0.00877107 -6.80232e-05 0.00898411 1.58775e-07 271.722 
-0.73 -0.23 -4.93639 4.08316 0.00918888 0.0087727 -7.48917e-05 0.00898881 1.58867e-07 271.705 
-0.73 -0.21 -4.89874 4.29605 0.00918116 0.00876808 -9.44455e-05 0.00898319 1.5863e-07 271.942 
-0.73 -0.19 -4.89851 4.72008 0.00916673 0.00877592 -9.94449e-05 0.00897929 1.58647e-07 271.795 
-0.79 -0.05 -3.25662 7.68022 0.00905927 0.00871229 -0.000153284 0.00889941 1.57499e-07 271.34 
-0.87 -0.03 -2.21097 8.38251 0.00900527 0.0086269 -0.000178768 0.00883798 1.56371e-07 271.411 
-0.83 -0.05 -2.70876 7.96654 0.00904078 0.00867255 -0.000155262 0.0088786 1.57017e-07 271.537 
-0.91 -0.03 -1.69545 8.25552 0.00899283 0.00862354 -0.000189484 0.00883185 1.56228e-07 271.472 
-0.81 -0.05 -2.89661 7.7082 0.00905439 0.00869847 -0.00014551 0.00889447 1.57344e-07 271.456 
-0.89 -0.03 -1.88861 8.42093 0.00899848 0.00863199 -0.000178567 0.00883592 1.56314e-07 271.447 
-0.77 -0.05 -3.64202 7.26798 0.00907208 0.0087289 -0.000154732 0.00891663 1.57678e-07 271.556 
-0.85 -0.03 -2.49311 8.19442 0.00901043 0.00864949 -0.000176162 0.00885333 1.56634e-07 271.425 
-0.75 -0.05 -3.8913 7.07572 0.00907843 0.00875499 -0.000161953 0.00892431 1.57758e-07 271.653 
-0.83 -0.03 -2.7454 8.3281 0.00902322 0.00866493 -0.000162565 0.00886545 1.56908e-07 271.322 
-0.81 -0.03 -3.16381 7.96959 0.00903333 0.00869382 -0.000158937 0.00887998 1.57106e-07 271.424 
-0.79 -0.03 -3.21611 8.05151 0.00904996 0.00871548 -0.000159127 0.00889623 1.57422e-07 271.375 
-0.77 -0.03 -3.61356 7.54112 0.00905931 0.00873506 -0.000162742 0.00890654 1.57545e-07 271.477 
-0.95 -0.17 -0.816959 5.1807 0.00907839 0.00869121 -0.00014514 0.00889653 1.57346e-07 271.515 
-0.99 -0.15 -0.120897 4.95376 0.00903083 0.00870608 -0.000176019 0.00888863 1.57174e-07 271.572 
-0.89 -0.17 -1.97459 5.85588 0.00910486 0.00867646 -0.000122142 0.00890789 1.5734e-07 271.873 
-0.97 -0.15 -0.388065 5.56032 0.00905089 0.00870218 -0.000165718 0.00889108 1.572e-07 271.602 
-0.95 -0.15 -0.903421 5.69176 0.00906247 0.00867393 -0.000154079 0.00888223 1.5712e-07 271.469 
-0.93 -0.15 -1.31572 5.8757 0.00907299 0.00866817 -0.000139529 0.00888701 1.57279e-07 271.342 
-0.83 -0.17 -3.09748 5.57317 0.00912536 0.00870484 -0.000108946 0.00892958 1.57751e-07 271.826 
-0.91 -0.15 -1.54705 6.1927 0.00909299 0.00867954 -0.000136776 0.00890315 1.57327e-07 271.751 
-0.99 -0.13 -0.204198 5.30336 0.00904574 0.0087075 -0.000188972 0.00889064 1.57245e-07 271.511 
-0.89 -0.15 -1.78381 6.22741 0.00909359 0.00866441 -0.000129741 0.00889419 1.57219e-07 271.663 
-0.97 -0.13 -0.484555 5.9392 0.00905375 0.00868074 -0.000172622 0.00888465 1.57202e-07 271.401 
-0.87 -0.15 -2.40413 6.12638 0.00909687 0.00868255 -0.0001233 0.00890881 1.57328e-07 271.921 
-0.95 -0.13 -0.877631 6.09762 0.00906403 0.00866346 -0.00016401 0.0088797 1.57113e-07 271.404 
-0.77 -0.17 -4.14833 5.30111 0.00915345 0.00872902 -0.000106567 0.00895856 1.58279e-07 271.798 
-0.85 -0.15 -2.68173 6.25084 0.00910585 0.00867775 -0.000115795 0.00890789 1.5751e-07 271.58 
-0.93 -0.13 -1.13893 6.18994 0.00907926 0.00866788 -0.000159339 0.00889259 1.57145e-07 271.743 
-0.83 -0.15 -3.01496 5.93298 0.00911901 0.00869896 -0.000120576 0.00892394 1.57734e-07 271.683 
-0.91 -0.13 -1.68314 6.49992 0.00907971 0.0086616 -0.000149562 0.00889334 1.57273e-07 271.545 
-0.99 -0.11 -0.124234 5.58075 0.00904272 0.00869548 -0.000186911 0.00888448 1.57021e-07 271.709 
-0.81 -0.15 -3.37625 6.11502 0.00912679 0.00870587 -0.000120023 0.00893135 1.57805e-07 271.785 
-0.89 -0.13 -2.01413 6.6133 0.00909019 0.00866428 -0.000134033 0.00889422 1.57335e-07 271.465 
-0.97 -0.11 -0.487873 6.2615 0.0090374 0.00866781 -0.000181993 0.0088742 1.56919e-07 271.572 
-0.79 -0.15 -3.86759 5.92612 0.00912871 0.00872228 -0.000122164 0.00894443 1.58088e-07 271.697 
-0.87 -0.13 -2.34296 6.611 0.00909866 0.00866679 -0.000130368 0.00890159 1.57431e-07 271.523 
-0.95 -0.11 -0.769534 6.42307 0.00904664 0.00866218 -0.000173529 0.00887345 1.57044e-07 271.332 
-0.77 -0.15 -4.11874 5.72304 0.00913307 0.00872771 -0.000113226 0.00894644 1.58263e-07 271.457 
-0.85 -0.13 -2.67128 6.36695 0.00911562 0.00868413 -0.000125922 0.00891091 1.57556e-07 271.592 
-0.93 -0.11 -1.21701 6.68655 0.00905709 0.00865753 -0.000167211 0.00887543 1.57102e-07 271.292 
-0.75 -0.15 -4.4491 5.6363 0.00914163 0.00873947 -0.000111354 0.00895589 1.58342e-07 271.607 
-0.83 -0.13 -3.03601 6.45511 0.00912259 0.00869583 -0.000129022 0.00892113 1.57478e-07 272.038 
-0.91 -0.11 -1.48341 6.88973 0.00906155 0.00864859 -0.000157723 0.00887598 1.57068e-07 271.369 
-0.99 -0.09 -0.0930394 5.81675 0.00899992 0.00868389 -0.000201464 0.00885691 1.56694e-07 271.432 
-0.81 -0.13 -3.55728 6.39984 0.00911773 0.00870387 -0.000122688 0.00892559 1.57885e-07 271.473 
-0.89 -0.11 -1.82953 6.94598 0.00907557 0.00865533 -0.000145001 0.00888322 1.57351e-07 271.102 
-0.97 -0.09 -0.357748 6.72921 0.00902495 0.00865846 -0.000189 0.00886383 1.56825e-07 271.417 
-0.79 -0.13 -3.6383 6.40436 0.00912269 0.008718 -0.000121743 0.00893565 1.57899e-07 271.755 
-0.87 -0.11 -2.2047 7.03016 0.00908756 0.00866396 -0.000143645 0.00889721 1.57423e-07 271.404 
-0.95 -0.09 -0.785503 6.78792 0.0090374 0.00865698 -0.000179948 0.00887199 1.56937e-07 271.472 
-0.77 -0.13 -4.0718 6.04655 0.00912341 0.00872258 -0.000119479 0.00893424 1.5798e-07 271.572 
-0.85 -0.11 -2.64907 6.80547 0.00909291 0.00868141 -0.000134757 0.00890121 1.57538e-07 271.328 
-0.93 -0.09 -1.08928 6.89114 0.00904195 0.00864937 -0.000176063 0.00886792 1.57136e-07 271.005 
-0.83 -0.11 -3.1306 6.97458 0.00909148 0.00868513 -0.000127484 0.00890543 1.57525e-07 271.479 
-0.91 -0.09 -1.31974 7.25603 0.00904276 0.00863569 -0.000158505 0.00885938 1.56878e-07 271.189 
-0.99 -0.07 -0.307942 6.21301 0.00900218 0.00867555 -0.000206561 0.00885708 1.56626e-07 271.555 
-0.81 -0.11 -3.44234 6.53282 0.00910475 0.00870727 -0.000127168 0.00891777 1.57529e-07 271.848 
-0.89 -0.09 -1.85283 7.41098 0.00904748 0.00865014 -0.00016012 0.0088707 1.57099e-07 271.153 
-0.97 -0.07 -0.539085 6.90025 0.0089951 0.00864811 -0.000205617 0.00884319 1.56443e-07 271.446 
-0.79 -0.11 -3.63515 6.69193 0.00911087 0.00871344 -0.000129635 0.00892814 1.5793e-07 271.473 
-0.87 -0.09 -2.14999 7.3603 0.00906251 0.00865652 -0.000155389 0.00888176 1.57314e-07 271.119 
-0.95 -0.07 -0.722598 7.08187 0.00899981 0.00864883 -0.000190039 0.00884482 1.56456e-07 271.473 
-0.77 -0.11 -3.97932 6.29558 0.00912501 0.0087202 -0.000131675 0.00893581 1.57994e-07 271.595 
-0.85 -0.09 -2.48969 7.23933 0.00907013 0.00867081 -0.000143643 0.00888626 1.57285e-07 271.307 
-0.93 -0.07 -1.10621 7.31342 0.00900975 0.00863287 -0.000179783 0.00884587 1.56704e-07 271.076 
-0.75 -0.11 -4.41628 6.03915 0.00913993 0.00875185 -0.000132015 0.00895437 1.58297e-07 271.64 
-0.83 -0.09 -2.77858 7.21705 0.00908579 0.00868109 -0.000139726 0.00890061 1.57362e-07 271.613 
-0.91 -0.07 -1.53449 7.63401 0.00902846 0.00863109 -0.000172298 0.00885084 1.56651e-07 271.32 
-0.99 -0.05 -0.0217358 6.61788 0.00898306 0.00866498 -0.000216154 0.00883816 1.56369e-07 271.419 
-0.81 -0.09 -3.2346 7.03601 0.00909704 0.00871083 -0.000138394 0.00891611 1.57711e-07 271.483 
-0.89 -0.07 -1.78912 7.69717 0.00904218 0.0086499 -0.000172798 0.00886738 1.56945e-07 271.318 
-0.97 -0.05 -0.576292 7.10807 0.00900074 0.00864467 -0.000208378 0.00884388 1.5647e-07 271.421 
-0.79 -0.09 -3.64974 6.86795 0.00910078 0.00871822 -0.000134055 0.00892524 1.57825e-07 271.566 
-0.87 -0.07 -2.19861 7.77433 0.0090406 0.00864172 -0.000157291 0.00886183 1.56776e-07 271.44 
-0.95 -0.05 -0.77623 7.43438 0.00900408 0.00863609 -0.000198019 0.00883911 1.56364e-07 271.458 
-0.77 -0.09 -3.86889 6.78157 0.00909711 0.00871842 -0.00013331 0.00892526 1.57836e-07 271.547 
-0.85 -0.07 -2.53175 7.50229 0.00904786 0.0086607 -0.000154016 0.00887579 1.56992e-07 271.494 
-0.93 -0.05 -1.15109 7.73069 0.00900351 0.0086219 -0.000182099 0.00883648 1.56424e-07 271.272 
-0.75 -0.09 -4.19679 6.47656 0.00909286 0.00874638 -0.000140168 0.00893414 1.57959e-07 271.606 
-0.83 -0.07 -2.9041 7.70284 0.00905549 0.00868351 -0.000144577 0.00888343 1.57066e-07 271.6 
-0.91 -0.05 -1.45748 7.97942 0.00900578 0.00863039 -0.000180546 0.00883868 1.56457e-07 271.282 
-0.99 -0.03 -0.191981 6.92331 0.00895096 0.0086553 -0.000229503 0.00881666 1.55954e-07 271.481 
-0.81 -0.07 -3.18594 7.55851 0.00905504 0.00870012 -0.00014924 0.00889515 1.57303e-07 271.547 
-0.89 -0.05 -1.80293 8.04039 0.00900625 0.0086374 -0.000175708 0.00884289 1.56571e-07 271.215 