ITEM: TIMESTEP
981000
ITEM: NUMBER OF CELLS
5000
ITEM: BOX BOUNDS ss ss pp
-0.5 0.5
-1 1
-0.5 0.5
ITEM: CELLS xc yc f_U[*] f_V[*] f_Tau[1] f_Tau[2] f_Tau[3] f_Press[*] f_Mrho[*] f_Ttra[*] 
-0.49 -0.99 -0.0684456 0.118799 0.0097586 0.00972828 1.23609e-05 0.00974636 1.71582e-07 272.773 
-0.47 -0.99 -0.138209 -0.0575296 0.00974474 0.00971432 1.00304e-05 0.00973572 1.71447e-07 272.69 
-0.45 -0.99 -0.162457 0.0266973 0.00974608 0.00972547 7.06709e-06 0.00974031 1.7137e-07 272.94 
-0.49 -0.97 -0.0340853 0.136922 0.00974292 0.00971867 1.22719e-05 0.00973324 1.71324e-07 272.816 
-0.43 -0.99 -0.239002 -0.00651167 0.00974006 0.00972835 6.87812e-06 0.00974188 1.71356e-07 273.007 
-0.47 -0.97 -0.11382 0.0689393 0.00974451 0.00971632 1.42329e-05 0.00973446 1.71313e-07 272.867 
-0.41 -0.99 -0.134016 -0.0430221 0.00973427 0.00972519 2.95628e-06 0.00973347 1.71274e-07 272.902 
-0.45 -0.97 -0.126975 0.00462724 0.00974488 0.00972881 6.95758e-06 0.00974213 1.71346e-07 273.03 
-0.49 -0.95 0.0269421 0.0932175 0.00973441 0.00970576 2.13493e-06 0.00972651 1.71129e-07 272.937 
-0.39 -0.99 -0.164311 0.0802603 0.00973876 0.00972614 -9.33859e-07 0.00973142 1.71053e-07 273.197 
-0.43 -0.97 0.00207497 0.0780132 0.00974984 0.00973008 6.42451e-06 0.00974439 1.71394e-07 273.016 
-0.47 -0.95 0.108691 0.115578 0.00975265 0.0097234 2.3137e-06 0.00973505 1.71306e-07 272.896 
-0.37 -0.99 -0.178362 -0.0462 0.00973906 0.00972993 9.19966e-06 0.00973641 1.71298e-07 272.947 
-0.41 -0.97 -0.170215 -0.147838 0.00974466 0.00972801 5.0668e-06 0.00973774 1.71305e-07 272.972 
-0.45 -0.95 0.197984 -0.157812 0.00975727 0.00973339 7.27195e-06 0.00974969 1.71524e-07 272.959 
-0.49 -0.93 0.0134597 -0.002928 0.00976571 0.00971561 -3.91514e-07 0.00974305 1.71397e-07 272.974 
-0.35 -0.99 -0.0288741 -0.129277 0.00972504 0.00970412 1.03302e-05 0.00971344 1.70884e-07 272.961 
-0.39 -0.97 -0.0155487 0.0368332 0.00973695 0.00972178 7.88748e-06 0.00973547 1.71355e-07 272.829 
-0.43 -0.95 0.139561 0.0904344 0.00975571 0.00972489 9.75036e-06 0.0097447 1.7148e-07 272.888 
-0.47 -0.93 0.0363157 0.00171102 0.0097582 0.00971786 1.92294e-06 0.00973876 1.71391e-07 272.864 
-0.33 -0.99 0.000200463 0.0440673 0.00973199 0.00972358 1.61589e-06 0.00972545 1.71167e-07 272.848 
-0.37 -0.97 0.0237739 -0.0711724 0.00973441 0.00972746 6.90561e-06 0.00973753 1.7137e-07 272.863 
-0.41 -0.95 0.0122119 0.0869917 0.00975343 0.00973138 6.73497e-06 0.00974528 1.71488e-07 272.893 
-0.45 -0.93 -0.0279629 0.0275317 0.0097543 0.009726 7.81861e-06 0.00974111 1.71444e-07 272.845 
-0.49 -0.91 0.0129886 0.122947 0.00976541 0.00972046 1.22384e-05 0.00974343 1.71287e-07 273.16 
-0.35 -0.97 -0.0367738 -0.0851331 0.00973684 0.00971261 6.22303e-06 0.00972758 1.71129e-07 272.967 
-0.39 -0.95 -0.199535 -0.0846844 0.00975129 0.00972306 6.55835e-06 0.00973862 1.715e-07 272.686 
-0.43 -0.93 -0.113006 0.111327 0.00975485 0.00972647 5.5909e-06 0.00973688 1.71324e-07 272.917 
-0.47 -0.91 -0.253653 -0.0358685 0.00975789 0.00971676 4.23336e-06 0.00973556 1.71404e-07 272.753 
-0.33 -0.97 -0.145807 -0.0188235 0.00974037 0.00972368 2.09792e-06 0.00973769 1.71424e-07 272.782 
-0.37 -0.95 -0.127564 -0.0880917 0.00975363 0.0097214 1.1432e-05 0.00974297 1.71391e-07 272.983 
-0.41 -0.93 -0.105942 0.110947 0.00975577 0.00973076 1.34121e-05 0.00973495 1.7128e-07 272.934 
-0.45 -0.91 -0.129227 0.045415 0.009763 0.00971932 4.55073e-06 0.00974507 1.71492e-07 272.879 
-0.49 -0.89 -0.03055 0.112059 0.00976497 0.00972032 7.7409e-06 0.00974371 1.71371e-07 273.034 
-0.35 -0.95 -0.117655 -0.0494392 0.00975646 0.00972235 3.30856e-06 0.00974215 1.71462e-07 272.845 
-0.39 -0.93 -0.00158156 -0.132768 0.0097512 0.00972432 7.84282e-06 0.0097395 1.71553e-07 272.626 
-0.43 -0.91 -0.222532 0.0662072 0.00975847 0.00973092 1.03247e-05 0.00974068 1.71269e-07 273.112 
-0.47 -0.89 0.0740793 0.119848 0.00976394 0.00972426 9.77319e-06 0.00974572 1.71545e-07 272.813 
-0.37 -0.93 -0.0511001 0.00655519 0.00975749 0.00972267 3.13014e-07 0.00974631 1.71412e-07 273.042 
-0.41 -0.91 -0.113624 0.0217147 0.00976685 0.0097252 4.59804e-06 0.00974416 1.71438e-07 272.94 
-0.45 -0.89 -0.204714 0.174693 0.00975665 0.00971481 1.29689e-06 0.00974135 1.71383e-07 272.948 
-0.49 -0.87 -0.0271055 0.0959311 0.00974739 0.00971287 -1.09769e-06 0.00973063 1.71291e-07 272.796 
-0.35 -0.93 -0.358712 0.0384952 0.0097565 0.00972329 6.25168e-06 0.00973827 1.71474e-07 272.718 
-0.39 -0.91 -0.17378 -0.0655346 0.00977302 0.00973435 1.16933e-05 0.00975628 1.71727e-07 272.819 
-0.43 -0.89 -0.203586 -0.0510863 0.00976607 0.00973623 1.8003e-06 0.00975187 1.71462e-07 273.118 
-0.47 -0.87 0.114827 0.19297 0.00975599 0.00972272 6.41806e-06 0.00973618 1.71413e-07 272.756 
-0.37 -0.91 -0.281133 0.157273 0.00975458 0.00972151 8.96491e-06 0.00973905 1.716e-07 272.54 
-0.41 -0.89 -0.107947 0.0311053 0.00976092 0.00971893 2.95033e-06 0.00974257 1.71472e-07 272.841 
-0.45 -0.87 -0.0630723 0.199914 0.00976211 0.00971768 6.53711e-06 0.00974827 1.71477e-07 272.993 
-0.49 -0.85 -0.058398 0.134746 0.00975417 0.00971592 1.16056e-06 0.00973384 1.71272e-07 272.916 
-0.35 -0.91 -0.176748 0.121597 0.00975034 0.00972417 5.04791e-06 0.0097379 1.71419e-07 272.796 
-0.39 -0.89 -0.138879 0.0913569 0.00975815 0.00971993 1.31961e-05 0.0097456 1.7152e-07 272.85 
-0.43 -0.87 -0.0869272 0.0425455 0.00974876 0.00973713 6.22742e-06 0.00974927 1.71521e-07 272.951 
-0.47 -0.85 -0.2274 0.245075 0.00975378 0.00971581 1.29958e-07 0.00973981 1.71351e-07 272.957 
-0.33 -0.91 -0.182339 -0.157916 0.00974849 0.00971049 1.28357e-05 0.00973207 1.71359e-07 272.728 
-0.37 -0.89 -0.24996 0.0528316 0.00976497 0.00973661 1.81698e-05 0.00975862 1.71674e-07 272.97 
-0.41 -0.87 -0.229511 0.00679071 0.00975161 0.00971985 6.47873e-06 0.00973751 1.71439e-07 272.753 
-0.45 -0.85 -0.138534 0.182882 0.00975598 0.00971774 7.09894e-06 0.00974289 1.71401e-07 272.964 
-0.35 -0.89 -0.302443 0.172641 0.00976596 0.00971919 1.03343e-05 0.00973945 1.71412e-07 272.849 
-0.39 -0.87 -0.230486 0.0734853 0.00975914 0.00971456 4.97399e-06 0.00973903 1.71484e-07 272.724 
-0.43 -0.85 -0.158078 0.0972664 0.00976782 0.00974023 3.46489e-06 0.00975015 1.71613e-07 272.83 
-0.37 -0.87 -0.286521 0.189737 0.00977383 0.00973366 6.55241e-06 0.00975444 1.71624e-07 272.932 
-0.41 -0.85 -0.140172 0.0845402 0.00976589 0.00971775 5.54249e-06 0.00974615 1.71632e-07 272.687 
-0.35 -0.87 -0.250153 0.128655 0.00977454 0.00972191 1.18753e-05 0.00974512 1.71476e-07 272.906 
-0.39 -0.85 -0.274234 0.236622 0.0097658 0.00972153 -1.74071e-06 0.00974776 1.71531e-07 272.894 
-0.33 -0.87 -0.405215 -0.0126951 0.00977238 0.00972207 1.16186e-05 0.00974828 1.71475e-07 272.996 
-0.37 -0.85 -0.337981 0.0637761 0.00976448 0.00972021 4.17864e-06 0.00974285 1.71432e-07 272.913 
-0.35 -0.85 -0.273323 0.0991773 0.00976463 0.00972122 1.25193e-05 0.00974192 1.713e-07 273.096 
-0.33 -0.85 -0.38866 0.314253 0.00976443 0.00972344 1.26059e-05 0.00973995 1.71396e-07 272.889 
-0.31 -0.99 0.0622962 -0.078137 0.00972698 0.00971189 1.1212e-05 0.00971906 1.7119e-07 272.632 
-0.29 -0.99 -0.00292617 0.149425 0.0097319 0.00972262 1.19395e-05 0.00973102 1.71276e-07 272.829 
-0.27 -0.99 -0.0778875 -0.0519884 0.00974659 0.00973035 7.54789e-06 0.00973439 1.71158e-07 273.113 
-0.31 -0.97 -0.383488 -0.0798943 0.00974526 0.00971454 3.69671e-06 0.00973197 1.71337e-07 272.76 
-0.29 -0.97 -0.379824 0.223193 0.00975339 0.00972027 8.52641e-06 0.00974303 1.7155e-07 272.731 
-0.33 -0.95 -0.0294693 0.100168 0.0097508 0.00971857 6.54968e-06 0.00973681 1.7133e-07 272.906 
-0.27 -0.97 -0.282235 -0.0960951 0.00974489 0.00972433 1.25803e-05 0.00973797 1.71397e-07 272.833 
-0.31 -0.95 -0.124869 0.176415 0.00974719 0.00971512 6.09487e-06 0.0097307 1.71326e-07 272.741 
-0.29 -0.95 -0.117588 0.0223079 0.00974152 0.00970691 8.34434e-06 0.0097234 1.71276e-07 272.616 
-0.33 -0.93 -0.345861 0.0461505 0.00976034 0.00971374 2.63718e-06 0.00973516 1.71323e-07 272.871 
-0.27 -0.95 -0.279278 -0.00692498 0.00974795 0.00973311 6.75536e-06 0.0097421 1.71431e-07 272.893 
-0.31 -0.93 -0.0698627 0.0845652 0.00975759 0.00971322 1.0588e-05 0.00973706 1.71587e-07 272.504 
-0.29 -0.93 -0.213165 0.180787 0.00976035 0.00971069 8.02832e-06 0.00973768 1.71496e-07 272.666 
-0.27 -0.93 -0.157835 0.0782777 0.00976103 0.00972904 8.27163e-06 0.00974716 1.71597e-07 272.772 
-0.31 -0.91 -0.206979 0.152312 0.00975292 0.00971443 5.24769e-06 0.0097384 1.71458e-07 272.746 
-0.29 -0.91 -0.198107 0.0758445 0.00975247 0.00971063 -2.66063e-07 0.00973195 1.71368e-07 272.71 
-0.33 -0.89 -0.36072 -0.140299 0.00976244 0.00971982 7.84217e-06 0.00974132 1.71423e-07 272.885 
-0.27 -0.91 -0.089614 0.119593 0.00975781 0.00972425 4.52836e-06 0.00973399 1.71456e-07 272.626 
-0.31 -0.89 -0.316466 0.0751782 0.00976535 0.00971613 3.86811e-07 0.00974889 1.71569e-07 272.864 
-0.29 -0.89 -0.219521 0.0148544 0.00976136 0.00971161 3.74279e-06 0.00974115 1.71328e-07 273.032 
-0.27 -0.89 -0.331423 0.226067 0.00975332 0.00971762 9.74477e-06 0.00974329 1.71449e-07 272.898 
-0.31 -0.87 -0.490042 0.0824632 0.0097613 0.00972025 6.43464e-06 0.00973888 1.71467e-07 272.746 
-0.29 -0.87 -0.411762 -0.0628835 0.00975406 0.00970682 7.34014e-06 0.00973446 1.71249e-07 272.97 
-0.27 -0.87 -0.385743 0.273564 0.00975315 0.00971747 1.24113e-05 0.00974007 1.71386e-07 272.908 
-0.31 -0.85 -0.414548 -0.164368 0.00976467 0.00972426 1.92885e-05 0.00974503 1.71551e-07 272.784 
-0.29 -0.85 -0.328226 0.0619173 0.00975562 0.00970568 1.2324e-05 0.00973977 1.71401e-07 272.876 
-0.27 -0.85 -0.401266 0.195627 0.00975282 0.00971301 1.03846e-05 0.00973628 1.7116e-07 273.162 
-0.25 -0.99 -0.234145 0.116858 0.00974767 0.00973838 1.42291e-05 0.00974245 1.71351e-07 273.03 
-0.25 -0.97 -0.145569 0.217468 0.00974774 0.00973575 6.45091e-06 0.00974289 1.71577e-07 272.683 
-0.25 -0.95 -0.432025 0.177695 0.00974459 0.00973663 8.68829e-06 0.00974235 1.71456e-07 272.861 
-0.25 -0.93 -0.111348 0.152499 0.00975838 0.00973706 1.49728e-05 0.00974406 1.7157e-07 272.728 
-0.25 -0.91 -0.229763 0.146827 0.00976166 0.00973034 1.13741e-05 0.00974678 1.71548e-07 272.838 
-0.25 -0.89 -0.373804 0.218992 0.00975116 0.00972211 1.26451e-05 0.00973807 1.71319e-07 272.96 
-0.25 -0.87 -0.427305 0.246269 0.00974804 0.00971393 1.6255e-05 0.00973879 1.71275e-07 273.049 
-0.25 -0.85 -0.326712 0.339949 0.00976273 0.00971786 9.46342e-06 0.0097462 1.71364e-07 273.116 
-0.25 -0.83 -0.486151 0.248893 0.00975961 0.00971118 4.59887e-06 0.00974365 1.71315e-07 273.121 
-0.33 -0.81 -0.0926148 0.11062 0.00976413 0.00971071 9.7931e-06 0.00973784 1.71419e-07 272.793 
-0.31 -0.81 -0.183085 0.156994 0.0097787 0.0097244 1.27037e-05 0.0097544 1.71447e-07 273.213 
-0.29 -0.81 -0.233721 0.120299 0.0097806 0.00972312 7.90729e-06 0.00975576 1.71437e-07 273.267 
-0.27 -0.81 -0.379716 0.369953 0.00977669 0.00972061 1.01573e-05 0.00975574 1.71489e-07 273.183 
-0.31 -0.79 -0.36561 0.14665 0.00975883 0.00971779 5.58113e-06 0.00973895 1.71383e-07 272.882 
-0.29 -0.79 -0.447388 0.407528 0.0097628 0.00972286 8.49689e-06 0.00974 1.71456e-07 272.795 
-0.33 -0.77 -0.37094 0.265643 0.00977026 0.00972333 1.28333e-05 0.00974791 1.71461e-07 273.009 
-0.27 -0.79 -0.498502 0.237735 0.00976365 0.00971287 1.47228e-05 0.00973983 1.71418e-07 272.85 
-0.31 -0.77 -0.305687 0.204929 0.00976257 0.00971044 1.16447e-05 0.00973897 1.71424e-07 272.817 
-0.29 -0.77 -0.321689 0.342357 0.00975442 0.00972119 1.17782e-05 0.00973994 1.71538e-07 272.663 
-0.27 -0.77 -0.340091 0.310551 0.00975327 0.00970875 8.2705e-06 0.00973559 1.71277e-07 272.956 
-0.31 -0.75 -0.194546 0.344174 0.0097608 0.00971679 9.93647e-06 0.00974882 1.71552e-07 272.89 
-0.29 -0.75 -0.473933 0.391311 0.00976293 0.00972077 1.52756e-05 0.00974866 1.71559e-07 272.874 
-0.27 -0.75 -0.496236 0.499381 0.00976135 0.00970725 1.74395e-05 0.00973495 1.71275e-07 272.942 
-0.49 -0.83 -0.100676 0.336278 0.00975395 0.00971798 2.60063e-06 0.00973509 1.71399e-07 272.748 
-0.47 -0.83 -0.167183 0.180648 0.0097553 0.00971395 2.63278e-06 0.00973872 1.71612e-07 272.512 
-0.45 -0.83 -0.134654 0.198498 0.00975394 0.00972497 -2.8609e-06 0.00974095 1.7149e-07 272.768 
-0.49 -0.81 0.057506 0.381792 0.00975861 0.00972112 -4.09926e-07 0.00974102 1.71448e-07 272.836 
-0.43 -0.83 -0.122231 0.0914737 0.00975003 0.00972293 1.91237e-06 0.00973781 1.71442e-07 272.756 
-0.47 -0.81 -0.0254736 0.177184 0.00975988 0.00971534 -5.46801e-07 0.00974316 1.71431e-07 272.923 
-0.45 -0.81 -0.0262092 0.160578 0.00976922 0.00972697 1.53131e-06 0.00974675 1.71572e-07 272.8 
-0.49 -0.79 0.00222346 0.416461 0.00975764 0.00972334 6.37611e-07 0.00974212 1.71396e-07 272.95 
-0.43 -0.81 -0.0988989 0.213776 0.00976834 0.00971661 -7.66522e-07 0.00974561 1.71696e-07 272.571 
-0.47 -0.79 0.0495947 0.124357 0.00975641 0.00971603 -9.38103e-06 0.00974034 1.71371e-07 272.94 
-0.41 -0.81 -0.25449 0.202668 0.00976478 0.00972442 7.69549e-06 0.00974875 1.71527e-07 272.927 
-0.45 -0.79 -0.0016779 0.295288 0.00975625 0.00972136 -1.56447e-06 0.00973781 1.7143e-07 272.776 
-0.49 -0.77 0.0360322 0.285381 0.00976139 0.00972181 4.88228e-06 0.00974307 1.71377e-07 273.006 
-0.39 -0.81 -0.266288 0.129845 0.00975704 0.00971927 1.47871e-05 0.0097465 1.71562e-07 272.809 
-0.43 -0.79 -0.305089 0.374349 0.00976368 0.00971333 2.98369e-06 0.00973838 1.71518e-07 272.651 
-0.47 -0.77 -0.0379082 0.331096 0.00975785 0.00972414 -4.47449e-08 0.00974258 1.71397e-07 272.962 
-0.37 -0.81 -0.0678625 0.163466 0.00975691 0.00971577 9.02282e-06 0.00973685 1.71542e-07 272.57 
-0.41 -0.79 -0.380948 0.267847 0.00976637 0.00972052 6.55561e-06 0.00974722 1.71696e-07 272.616 
-0.45 -0.77 -0.351165 0.49062 0.00975707 0.00971396 -5.0149e-06 0.00973657 1.7142e-07 272.757 
-0.35 -0.81 -0.0285039 0.197529 0.00975025 0.00971383 2.42153e-06 0.00973693 1.71368e-07 272.849 
-0.39 -0.79 -0.244231 -0.00367549 0.00976924 0.00971646 6.77759e-06 0.00974483 1.71712e-07 272.523 
-0.43 -0.77 -0.277182 0.455321 0.009753 0.00971234 4.36893e-07 0.0097323 1.7144e-07 272.605 
-0.37 -0.79 -0.275177 0.135177 0.0097781 0.00971751 8.50443e-06 0.00975024 1.71633e-07 272.801 
-0.41 -0.77 -0.342774 0.0956637 0.00975505 0.00971205 4.70631e-06 0.00973639 1.71425e-07 272.744 
-0.35 -0.79 -0.215516 0.107279 0.00977615 0.00971733 1.4498e-05 0.00974925 1.71585e-07 272.849 
-0.39 -0.77 -0.1893 0.0302611 0.00975416 0.00972201 9.04204e-06 0.00974655 1.71641e-07 272.684 
-0.43 -0.75 0.105683 0.213739 0.0097658 0.00971765 -6.25456e-06 0.00974294 1.71493e-07 272.819 
-0.33 -0.79 -0.235063 0.249694 0.00976161 0.00971282 1.77609e-06 0.00973531 1.71421e-07 272.72 
-0.37 -0.77 -0.152086 0.163589 0.00975591 0.00971239 1.8589e-06 0.00973749 1.71449e-07 272.737 
-0.41 -0.75 0.0825301 0.323007 0.00976748 0.00970068 4.23349e-06 0.0097422 1.71592e-07 272.64 
-0.35 -0.77 -0.393436 0.252986 0.0097685 0.00971795 6.78896e-06 0.00974456 1.71372e-07 273.056 
-0.39 -0.75 -0.226124 0.0745999 0.00977186 0.00972152 5.00493e-06 0.00974979 1.71617e-07 272.813 
-0.49 -0.75 -0.0403369 0.258425 0.00975732 0.00972462 4.24305e-06 0.00974269 1.71333e-07 273.066 
-0.47 -0.75 -0.0761666 0.47645 0.00975767 0.0097321 4.2132e-06 0.00974142 1.71334e-07 273.029 
-0.45 -0.75 -0.0541108 0.587726 0.00975605 0.00970575 -4.81309e-06 0.00972785 1.7137e-07 272.592 
-0.49 -0.73 -0.0935691 0.482853 0.00977196 0.00971849 6.04313e-06 0.00974574 1.71364e-07 273.103 
-0.47 -0.73 -0.194438 0.425987 0.00977378 0.00974431 4.42065e-06 0.00975551 1.715e-07 273.159 
-0.45 -0.73 -0.113452 0.290314 0.00977063 0.00971495 -8.07858e-06 0.00973985 1.71478e-07 272.757 
-0.49 -0.71 -0.0232396 0.629749 0.0097755 0.00971699 1.20725e-06 0.00974255 1.7151e-07 272.781 
-0.43 -0.73 -0.0394878 0.329613 0.00975499 0.00970697 -1.17878e-07 0.00973462 1.71419e-07 272.703 
-0.47 -0.71 -0.086892 0.474106 0.00977586 0.00974089 1.24798e-07 0.00975707 1.71651e-07 272.963 
-0.37 -0.75 -0.248159 0.122484 0.00976146 0.0097161 1.10639e-05 0.00974023 1.71516e-07 272.705 
-0.41 -0.73 -0.0279777 0.340539 0.00975738 0.009697 -2.2276e-06 0.0097369 1.71579e-07 272.512 
-0.45 -0.71 0.0862573 0.0901145 0.00977071 0.00972093 8.63791e-06 0.00974581 1.71478e-07 272.923 
-0.49 -0.69 0.0450451 0.571872 0.00977065 0.00971255 -6.12287e-06 0.00974224 1.71502e-07 272.785 
-0.35 -0.75 -0.10052 0.293757 0.00975207 0.00971175 6.62719e-06 0.00973519 1.71315e-07 272.885 
-0.39 -0.73 -0.0234446 0.160135 0.0097606 0.0097101 9.02015e-06 0.00973924 1.7134e-07 272.958 
-0.43 -0.71 -0.0341405 0.342918 0.00976928 0.0097091 1.9822e-06 0.00974364 1.71582e-07 272.696 
-0.47 -0.69 0.156952 0.360366 0.00977702 0.00973178 5.02281e-06 0.0097537 1.71535e-07 273.053 
-0.37 -0.73 -0.261934 0.204753 0.00977013 0.0097215 8.32301e-06 0.00974866 1.7157e-07 272.856 
-0.41 -0.71 -0.0547692 0.451967 0.00976764 0.00969061 5.04348e-07 0.0097357 1.71663e-07 272.346 
-0.45 -0.69 -0.0453401 0.286885 0.00978149 0.00971881 8.68887e-06 0.0097537 1.71685e-07 272.815 
-0.35 -0.73 -0.493858 0.41618 0.00977157 0.00971485 8.29794e-06 0.00974817 1.71564e-07 272.852 
-0.39 -0.71 -0.20604 0.216035 0.00977054 0.00971287 -2.4412e-06 0.00974109 1.7154e-07 272.693 
-0.43 -0.69 -0.1796 0.478548 0.00978127 0.00971665 8.4787e-06 0.00975642 1.71851e-07 272.627 
-0.33 -0.73 -0.444438 0.0971246 0.00976951 0.00970496 1.19773e-05 0.00974033 1.71556e-07 272.645 
-0.37 -0.71 -0.0911576 0.304809 0.00976952 0.00971777 1.05885e-05 0.00974754 1.71578e-07 272.811 
-0.41 -0.69 -0.128609 0.328855 0.00977492 0.00970209 -3.34081e-07 0.00973981 1.71692e-07 272.416 
-0.35 -0.71 -0.222796 0.562494 0.00976612 0.00970564 5.72374e-06 0.00974741 1.71602e-07 272.77 
-0.39 -0.69 -0.0833064 0.357644 0.00976447 0.00970179 4.9759e-06 0.00973569 1.71486e-07 272.627 
-0.37 -0.69 -0.290028 0.330444 0.00976711 0.00971381 7.70152e-06 0.0097463 1.71534e-07 272.848 
-0.35 -0.69 -0.288453 0.617522 0.00976676 0.00970298 1.32391e-05 0.00973774 1.71409e-07 272.807 
-0.35 -0.67 -0.220223 0.476079 0.00977231 0.0097158 8.44684e-06 0.00974484 1.7152e-07 272.828 
-0.33 -0.67 -0.202853 0.4934 0.00976063 0.0097008 5.34934e-06 0.0097456 1.71602e-07 272.72 
-0.33 -0.75 -0.102035 0.16796 0.00975448 0.00971422 1.07909e-05 0.00973687 1.71347e-07 272.882 
-0.31 -0.73 -0.46379 0.462323 0.00976868 0.00972471 1.28824e-05 0.00975095 1.716e-07 272.873 
-0.29 -0.73 -0.323657 0.522959 0.00977092 0.00970885 1.12999e-05 0.00974846 1.71476e-07 273 
-0.33 -0.71 -0.51666 0.135733 0.00976381 0.00970856 1.53964e-05 0.00974222 1.71503e-07 272.782 
-0.27 -0.73 -0.481089 0.534246 0.00976853 0.00971744 1.84848e-05 0.00975072 1.71455e-07 273.096 
-0.31 -0.71 -0.440617 0.378498 0.00976369 0.00972358 1.10135e-05 0.00975112 1.71592e-07 272.89 
-0.29 -0.71 -0.483353 0.481334 0.00976013 0.00970375 1.6002e-05 0.00973985 1.71299e-07 273.042 
-0.33 -0.69 -0.273472 0.293978 0.00977734 0.00970717 3.23413e-06 0.00974876 1.71717e-07 272.625 
-0.27 -0.71 -0.411844 0.546208 0.00976441 0.0097119 1.23851e-05 0.00974007 1.71208e-07 273.192 
-0.31 -0.69 -0.428398 0.366965 0.00978025 0.00972088 1.26702e-05 0.00975839 1.71686e-07 272.944 
-0.29 -0.69 -0.425246 0.574626 0.00977825 0.00970847 1.61686e-05 0.00974864 1.71517e-07 272.94 
-0.27 -0.69 -0.347997 0.371363 0.00977969 0.00971579 9.38077e-06 0.00975083 1.71342e-07 273.28 
-0.31 -0.67 -0.362988 0.451962 0.00975788 0.00971333 9.6682e-06 0.00974138 1.7149e-07 272.779 
-0.29 -0.67 -0.371497 0.402033 0.00976394 0.00971303 1.19222e-05 0.0097435 1.71362e-07 273.043 
-0.41 -0.83 -0.13487 0.197864 0.00975705 0.00972671 5.35234e-06 0.0097436 1.7154e-07 272.762 
-0.39 -0.83 -0.105027 0.240744 0.00975382 0.00972246 2.88296e-06 0.00973373 1.71406e-07 272.699 
-0.37 -0.83 -0.108824 0.221124 0.00974419 0.00971239 6.05579e-06 0.00972868 1.71218e-07 272.857 
-0.35 -0.83 -0.292505 0.0665072 0.0097511 0.00971803 1.35842e-05 0.00973059 1.71259e-07 272.845 
-0.33 -0.83 -0.170262 0.283995 0.00975173 0.00972 1.34716e-05 0.0097345 1.71224e-07 273.011 
-0.31 -0.83 -0.15007 -0.24703 0.00974815 0.00971598 1.64768e-05 0.00973849 1.71429e-07 272.795 
-0.29 -0.83 -0.323939 0.185214 0.00975632 0.00971859 1.82561e-05 0.00974473 1.71282e-07 273.205 
-0.27 -0.83 -0.427997 0.287223 0.00975935 0.00971849 4.25792e-06 0.0097463 1.71326e-07 273.178 
-0.27 -0.67 -0.439382 0.495451 0.00976245 0.00971793 1.52415e-05 0.00974527 1.71374e-07 273.074 
-0.25 -0.67 -0.389494 0.461434 0.00977172 0.00971913 7.17215e-06 0.00975396 1.71452e-07 273.192 
-0.25 -0.81 -0.398208 0.264035 0.00976357 0.00971037 7.82066e-06 0.00974508 1.71484e-07 272.893 
-0.25 -0.79 -0.33745 0.180679 0.00976875 0.00972053 1.83639e-05 0.00974676 1.71452e-07 272.992 
-0.35 -0.55 -0.302403 0.75356 0.00978422 0.00971609 7.55311e-06 0.00975042 1.71513e-07 272.996 
-0.39 -0.53 -0.217495 0.915797 0.00978009 0.00969318 4.1275e-06 0.00974321 1.71374e-07 273.016 
-0.37 -0.57 -0.257583 0.714627 0.00977628 0.00970641 1.03475e-05 0.00974892 1.7141e-07 273.119 
-0.41 -0.55 -0.184976 0.900492 0.00976287 0.00970578 4.62036e-06 0.00973903 1.7146e-07 272.762 
-0.45 -0.53 0.00285003 0.614643 0.00976394 0.00969825 -1.9306e-06 0.00973241 1.71342e-07 272.763 
-0.35 -0.57 -0.253431 0.733421 0.00977935 0.00970552 1.84425e-05 0.00974461 1.71477e-07 272.891 
-0.39 -0.55 -0.273265 0.738185 0.00976214 0.00968726 4.87639e-06 0.00973883 1.71346e-07 272.938 
-0.43 -0.53 -0.149524 0.676531 0.00977022 0.00969597 3.44449e-06 0.00973519 1.71465e-07 272.646 
-0.47 -0.51 -0.0667068 0.729789 0.00976666 0.00970333 -4.99604e-06 0.00973628 1.7153e-07 272.573 
-0.37 -0.55 -0.310886 0.734332 0.00976547 0.00969053 4.6705e-06 0.00973695 1.71222e-07 273.082 
-0.41 -0.53 -0.168945 0.794769 0.00977586 0.00970272 1.23934e-06 0.00974127 1.71453e-07 272.835 
-0.45 -0.51 -0.298963 0.696887 0.00976928 0.00969316 1.37535e-07 0.00973576 1.71462e-07 272.668 
-0.37 -0.53 -0.216037 0.748771 0.00977983 0.00969205 5.18339e-07 0.00974103 1.71451e-07 272.833 
-0.41 -0.51 -0.23359 0.822013 0.00976478 0.00969856 1.45242e-07 0.00973618 1.71411e-07 272.76 
-0.35 -0.53 -0.309357 0.768942 0.0097719 0.00970658 1.0107e-05 0.00974329 1.71527e-07 272.775 
-0.39 -0.51 -0.291479 0.862074 0.00976952 0.00969372 5.86418e-07 0.00973741 1.71523e-07 272.616 
-0.37 -0.51 -0.366151 0.859633 0.00976718 0.00968637 5.95491e-06 0.00972966 1.71254e-07 272.826 
-0.35 -0.51 -0.447552 0.827385 0.00976892 0.00970077 1.12604e-05 0.00973302 1.71393e-07 272.699 
-0.49 -0.65 0.013151 0.472556 0.00977405 0.00971749 9.27773e-06 0.0097481 1.71445e-07 273.039 
-0.47 -0.65 -0.0866874 0.409322 0.0097725 0.00971639 4.22285e-06 0.00975089 1.71569e-07 272.92 
-0.45 -0.65 -0.0614616 0.490829 0.00977134 0.00972752 6.85391e-06 0.00975391 1.71744e-07 272.727 
-0.49 -0.63 -0.006169 0.457007 0.00976046 0.00971983 3.29715e-07 0.0097508 1.71764e-07 272.608 
-0.43 -0.65 0.0604573 0.612967 0.00976185 0.0096978 3.48767e-06 0.00973537 1.71446e-07 272.682 
-0.47 -0.63 -0.0315129 0.503437 0.00976466 0.00970998 -3.30247e-07 0.00974464 1.71626e-07 272.655 
-0.41 -0.65 0.0330434 0.502965 0.00976565 0.00970597 1.1335e-05 0.00974003 1.71444e-07 272.815 
-0.45 -0.63 -0.0297508 0.439573 0.00977255 0.00972657 7.08621e-06 0.00975547 1.71676e-07 272.878 
-0.49 -0.61 -0.018813 0.559572 0.00976072 0.00971556 -8.43079e-06 0.0097457 1.71518e-07 272.856 
-0.39 -0.65 -0.125167 0.372154 0.0097636 0.00971452 7.10475e-06 0.00974557 1.71445e-07 272.969 
-0.43 -0.63 -0.15264 0.585145 0.00977626 0.00970305 1.04586e-05 0.00973836 1.71295e-07 273.005 
-0.47 -0.61 -0.11314 0.448687 0.00976174 0.00970913 1.69376e-06 0.0097413 1.71446e-07 272.847 
-0.37 -0.65 -0.27855 0.563292 0.0097644 0.00969937 8.68251e-07 0.00973448 1.71269e-07 272.938 
-0.41 -0.63 -0.186231 0.630026 0.0097731 0.00969899 2.19559e-06 0.00973897 1.71465e-07 272.751 
-0.45 -0.61 -0.156603 0.543587 0.00976259 0.00971645 -5.69563e-06 0.00974191 1.71426e-07 272.896 
-0.49 -0.59 -0.0410773 0.51175 0.00977888 0.00970657 -4.68293e-06 0.00975217 1.71684e-07 272.774 
-0.35 -0.65 -0.268572 0.384985 0.0097715 0.00971558 8.87138e-06 0.00974453 1.71492e-07 272.864 
-0.39 -0.63 -0.17375 0.561354 0.00978308 0.00971782 1.03306e-05 0.00974965 1.71558e-07 272.903 
-0.43 -0.61 -0.093265 0.682869 0.00977659 0.00970239 3.56982e-06 0.00974013 1.71376e-07 272.926 
-0.47 -0.59 0.0230762 0.573029 0.00978514 0.00971585 -5.49276e-06 0.00975352 1.71608e-07 272.932 
-0.37 -0.63 -0.256078 0.507755 0.00976865 0.00969997 1.03245e-05 0.00973577 1.71335e-07 272.869 
-0.41 -0.61 -0.216563 0.552353 0.00977736 0.00971132 9.51121e-06 0.00974266 1.71435e-07 272.904 
-0.45 -0.59 -0.0166645 0.424812 0.00978133 0.00971435 -6.3251e-07 0.00975168 1.71585e-07 272.916 
-0.49 -0.57 -0.0255032 0.502676 0.00977876 0.00970469 -5.10903e-06 0.00974378 1.71488e-07 272.851 
-0.35 -0.63 -0.384349 0.503502 0.00976138 0.00970491 8.51767e-06 0.00973578 1.71316e-07 272.9 
-0.39 -0.61 -0.0882669 0.443473 0.00977541 0.00970176 6.07489e-06 0.00973766 1.713e-07 272.977 
-0.43 -0.59 -0.0691474 0.812763 0.00976889 0.00969721 2.96466e-06 0.00974149 1.71555e-07 272.679 
-0.47 -0.57 -0.0373388 0.522488 0.00977258 0.0097144 -6.10866e-06 0.00974125 1.71489e-07 272.777 
-0.37 -0.61 -0.118233 0.73182 0.00977631 0.00970694 1.42211e-05 0.00974351 1.71518e-07 272.795 
-0.41 -0.59 -0.0101926 0.478146 0.00977535 0.00970819 1.71013e-06 0.00974023 1.71419e-07 272.86 
-0.45 -0.57 -0.0811903 0.612323 0.00977313 0.00970582 1.9866e-06 0.00974014 1.7138e-07 272.92 
-0.49 -0.55 -0.0400864 0.576331 0.0097603 0.00970362 -1.05771e-05 0.0097367 1.71416e-07 272.767 
-0.35 -0.61 -0.0937696 0.488309 0.00977025 0.00970117 1.05606e-05 0.00973652 1.71342e-07 272.878 
-0.39 -0.59 -0.0515806 0.498476 0.00977317 0.00968796 9.56165e-06 0.00973667 1.71378e-07 272.825 
-0.43 -0.57 0.0636622 0.620134 0.00977757 0.00969698 2.46377e-06 0.0097414 1.71386e-07 272.945 
-0.47 -0.55 -0.123596 0.674593 0.0097688 0.00970266 -3.4885e-08 0.00974228 1.71632e-07 272.578 
-0.33 -0.61 -0.337647 0.630561 0.00976804 0.00969844 1.7567e-05 0.00973721 1.71249e-07 273.047 
-0.37 -0.59 -0.112383 0.669405 0.0097799 0.00971679 1.77516e-05 0.00975092 1.71612e-07 272.852 
-0.41 -0.57 -0.0696297 0.623573 0.0097717 0.00970469 1.15248e-05 0.00974068 1.71345e-07 272.991 
-0.45 -0.55 -0.181477 0.470123 0.00976435 0.0097029 2.07585e-06 0.00973045 1.71277e-07 272.813 
-0.49 -0.53 0.0104468 0.619944 0.00976351 0.00969646 -3.95945e-06 0.00973627 1.71385e-07 272.803 
-0.35 -0.59 -0.280501 0.679197 0.00977446 0.0096964 1.36246e-05 0.00973394 1.71441e-07 272.65 
-0.39 -0.57 -0.302238 0.732346 0.00977312 0.00968372 4.55993e-06 0.00973803 1.71334e-07 272.933 
-0.43 -0.55 -0.198929 0.547867 0.00976232 0.00969158 7.96588e-06 0.00973111 1.71333e-07 272.742 
-0.47 -0.53 -0.00126139 0.608432 0.00975802 0.00970025 -2.07557e-06 0.00972835 1.71286e-07 272.738 
-0.29 -0.57 -0.584234 0.638245 0.00977495 0.00970824 1.9428e-05 0.00974604 1.71431e-07 273.003 
-0.33 -0.55 -0.455171 0.776232 0.00978498 0.00970605 9.87203e-06 0.0097478 1.71569e-07 272.833 
-0.29 -0.61 -0.30199 0.594356 0.00976626 0.0097181 8.51565e-06 0.00974741 1.71627e-07 272.731 
-0.33 -0.59 -0.299544 0.842513 0.00977444 0.00970429 1.18691e-05 0.00973928 1.71278e-07 273.058 
-0.27 -0.61 -0.368907 0.50719 0.00977871 0.00970999 1.47902e-05 0.00974931 1.71607e-07 272.815 
-0.31 -0.59 -0.514029 0.611511 0.00977623 0.00970847 1.05316e-05 0.00974239 1.71463e-07 272.85 
-0.29 -0.59 -0.363009 0.451604 0.00978002 0.00971948 1.38703e-05 0.00974745 1.71565e-07 272.831 
-0.33 -0.57 -0.366171 0.783242 0.00977866 0.00970925 7.488e-06 0.00974444 1.71401e-07 273.007 
-0.27 -0.59 -0.454531 0.598703 0.00976685 0.00970095 1.22381e-05 0.00973649 1.71408e-07 272.773 
-0.31 -0.57 -0.364935 0.64725 0.00977905 0.0097052 6.82416e-06 0.00974291 1.71472e-07 272.852 
-0.27 -0.57 -0.64712 0.641147 0.00977264 0.00970812 2.71265e-05 0.00975281 1.71642e-07 272.858 
-0.31 -0.55 -0.319442 0.881168 0.00977366 0.00970364 1.85875e-05 0.00974463 1.71466e-07 272.909 
-0.29 -0.55 -0.45899 0.670441 0.00976369 0.00969333 2.18143e-05 0.00973155 1.7132e-07 272.776 
-0.33 -0.53 -0.251589 0.998466 0.00976815 0.00969621 1.43452e-05 0.00973352 1.71234e-07 272.966 
-0.27 -0.55 -0.405342 0.596703 0.00976892 0.0097113 1.75988e-05 0.00973894 1.71385e-07 272.879 
-0.31 -0.53 -0.384591 0.719696 0.00976772 0.0097026 2.41621e-05 0.00974411 1.71508e-07 272.827 
-0.29 -0.53 -0.320093 0.652166 0.00978296 0.00970117 1.61654e-05 0.00974869 1.71477e-07 273.004 
-0.33 -0.51 -0.312338 0.773323 0.00976561 0.0096895 1.97815e-05 0.00973144 1.71141e-07 273.057 
-0.27 -0.53 -0.495631 0.848167 0.00977535 0.00970883 2.13491e-05 0.00974093 1.71344e-07 273 
-0.31 -0.51 -0.273277 0.834715 0.00976568 0.00970501 1.51568e-05 0.00973265 1.71313e-07 272.818 
-0.29 -0.51 -0.437759 0.792032 0.00975313 0.00969887 2.14037e-05 0.00973409 1.71364e-07 272.776 
-0.27 -0.51 -0.512447 1.11856 0.00975601 0.00969961 2.83887e-05 0.00973384 1.71265e-07 272.927 
-0.33 -0.65 -0.306121 0.423689 0.00977455 0.00970156 1.37655e-05 0.00974069 1.71358e-07 272.97 
-0.31 -0.65 -0.226833 0.621676 0.00977109 0.00971508 1.23747e-05 0.00974688 1.7145e-07 272.998 
-0.29 -0.65 -0.475651 0.48212 0.00976248 0.00970357 9.36401e-06 0.00973552 1.7119e-07 273.093 
-0.33 -0.63 -0.319544 0.4946 0.00975913 0.0097048 6.13977e-06 0.00974128 1.71485e-07 272.785 
-0.27 -0.65 -0.46811 0.472139 0.00977083 0.00972387 9.42614e-06 0.0097484 1.71467e-07 273.013 
-0.31 -0.63 -0.47955 0.629027 0.00976076 0.0097052 1.51683e-05 0.00973835 1.71304e-07 272.991 
-0.25 -0.65 -0.525519 0.353237 0.00976245 0.00971405 1.06876e-05 0.00974156 1.7152e-07 272.737 
-0.29 -0.63 -0.452109 0.414414 0.00977038 0.00972065 1.2877e-05 0.00974556 1.71563e-07 272.781 
-0.27 -0.63 -0.444191 0.479463 0.00975635 0.00971247 1.30452e-05 0.00973519 1.71465e-07 272.645 
-0.31 -0.61 -0.342594 0.51433 0.0097714 0.00971115 1.04186e-05 0.00974858 1.71649e-07 272.729 
-0.49 -0.67 0.0272203 0.482472 0.00977467 0.0097142 -4.70333e-06 0.00974384 1.71518e-07 272.804 
-0.47 -0.67 0.0532061 0.371863 0.00976846 0.00972268 1.56786e-06 0.00974527 1.71579e-07 272.748 
-0.45 -0.67 0.0910215 0.432302 0.00976656 0.00972104 4.05615e-06 0.00974766 1.71567e-07 272.834 
-0.43 -0.67 -0.107447 0.596995 0.00977464 0.00971089 5.30518e-06 0.00974656 1.71593e-07 272.761 