ITEM: TIMESTEP
1038500
ITEM: NUMBER OF CELLS
5000
ITEM: BOX BOUNDS ss ss pp
-1 1
-0.5 0.5
-0.5 0.5
ITEM: CELLS xc yc f_U[*] f_V[*] f_Tau[1] f_Tau[2] f_Tau[3] f_Press[*] f_Mrho[*] f_Ttra[*] 
-0.99 -0.49 -0.20768 0.267954 0.00899588 0.00874844 -2.75411e-05 0.00888591 1.56717e-07 272.279 
-0.97 -0.49 -0.515518 0.0450057 0.00899211 0.00874906 -3.03012e-05 0.00888341 1.56559e-07 272.479 
-0.95 -0.49 -0.648138 0.044258 0.00899112 0.00874926 -3.0858e-05 0.00888014 1.56646e-07 272.226 
-0.93 -0.49 -0.869171 0.149059 0.00899959 0.00874993 -2.23241e-05 0.0088827 1.56753e-07 272.12 
-0.91 -0.49 -1.16645 0.0909711 0.00900184 0.00872526 -2.03772e-05 0.00886842 1.56468e-07 272.177 
-0.99 -0.47 -0.179843 0.519613 0.0090133 0.00876825 -1.64323e-05 0.00890212 1.56978e-07 272.323 
-0.89 -0.49 -1.52396 0.229505 0.00901479 0.00873933 -2.37621e-05 0.00888033 1.56745e-07 272.061 
-0.97 -0.47 -0.4402 0.318397 0.00901615 0.00874651 -3.30023e-05 0.0088951 1.56784e-07 272.445 
-0.87 -0.49 -1.71255 0.0243571 0.00903416 0.00875791 -1.67319e-05 0.00889805 1.57037e-07 272.096 
-0.95 -0.47 -0.689438 0.309889 0.00902458 0.00875277 -3.15896e-05 0.00889848 1.56892e-07 272.361 
-0.85 -0.49 -1.94177 0.122419 0.00903748 0.00875346 -9.73589e-06 0.00889751 1.56878e-07 272.356 
-0.93 -0.47 -0.942478 0.352251 0.00902603 0.00874303 -3.31614e-05 0.00889074 1.56808e-07 272.27 
-0.83 -0.49 -2.04057 -0.0274025 0.00904681 0.00876704 -1.03286e-07 0.00891256 1.57149e-07 272.346 
-0.91 -0.47 -1.243 0.563594 0.0090397 0.00872986 -2.94325e-05 0.00889009 1.56882e-07 272.122 
-0.99 -0.45 -0.103482 0.901559 0.00904998 0.0087712 -2.79124e-05 0.00892019 1.57238e-07 272.425 
-0.81 -0.49 -2.17845 0.233343 0.00905811 0.00877246 1.225e-05 0.0089227 1.57375e-07 272.265 
-0.89 -0.47 -1.6183 0.445834 0.00904347 0.00873815 -3.11191e-05 0.00888979 1.56947e-07 272 
-0.97 -0.45 -0.421166 0.579426 0.00904975 0.008759 -3.28982e-05 0.00891649 1.57234e-07 272.32 
-0.79 -0.49 -2.47787 0.0659839 0.00906808 0.00877964 1.09225e-05 0.00893164 1.57495e-07 272.33 
-0.87 -0.47 -1.89826 0.241676 0.00904496 0.0087458 -2.79831e-05 0.00890255 1.57155e-07 272.03 
-0.95 -0.45 -0.784879 0.614618 0.00905 0.00874761 -3.48219e-05 0.00890859 1.57049e-07 272.398 
-0.77 -0.49 -2.49233 -0.0426126 0.00906991 0.00879013 2.33884e-05 0.00894004 1.57593e-07 272.417 
-0.85 -0.47 -1.94924 0.343659 0.00905624 0.00875021 -1.5481e-05 0.0089133 1.57149e-07 272.369 
-0.93 -0.45 -1.15965 0.566074 0.00906019 0.0087425 -4.0581e-05 0.0089073 1.57128e-07 272.221 
-0.83 -0.47 -2.3848 0.190814 0.00906462 0.00875769 -1.03925e-05 0.00891931 1.57289e-07 272.31 
-0.91 -0.45 -1.32574 0.789879 0.00905714 0.0087326 -3.64143e-05 0.00889539 1.5707e-07 271.957 
-0.99 -0.43 -0.179113 1.11728 0.00905622 0.0087676 -3.4259e-05 0.00892829 1.57601e-07 272.045 
-0.81 -0.47 -2.62925 0.449326 0.00907398 0.00876341 -3.32059e-06 0.00893031 1.57424e-07 272.411 
-0.89 -0.45 -1.64798 0.838787 0.0090701 0.00873185 -3.83269e-05 0.0089015 1.57127e-07 272.046 
-0.97 -0.43 -0.454094 0.95424 0.00907237 0.00876748 -3.72329e-05 0.00893211 1.57541e-07 272.264 
-0.79 -0.47 -2.93239 0.350624 0.0090842 0.00877277 8.38077e-06 0.00894195 1.57655e-07 272.366 
-0.87 -0.45 -2.02261 0.496624 0.00907542 0.00874297 -2.55981e-05 0.00891188 1.57259e-07 272.134 
-0.95 -0.43 -0.76292 0.916197 0.00908029 0.0087503 -4.56079e-05 0.00892215 1.57441e-07 272.134 
-0.77 -0.47 -3.21431 0.0630732 0.00909394 0.00877941 1.16739e-05 0.00894683 1.57846e-07 272.187 
-0.85 -0.45 -2.34152 0.490122 0.00907901 0.00873948 -2.37436e-05 0.00891848 1.57366e-07 272.152 
-0.93 -0.43 -0.988466 0.95656 0.00908337 0.00874045 -3.85666e-05 0.00891654 1.57283e-07 272.236 
-0.75 -0.47 -3.25307 0.342496 0.00910567 0.00879487 1.82075e-05 0.00895469 1.57784e-07 272.531 
-0.83 -0.45 -2.55098 0.59125 0.00908882 0.00875761 -2.11266e-05 0.00893079 1.57575e-07 272.165 
-0.91 -0.43 -1.48794 1.02646 0.00908975 0.00873666 -4.20658e-05 0.00891601 1.57315e-07 272.164 
-0.99 -0.41 -0.151211 1.41 0.00908048 0.00876994 -4.77189e-05 0.00893804 1.57744e-07 272.094 
-0.81 -0.45 -2.8765 0.794772 0.00909238 0.00874643 -1.18011e-05 0.00892861 1.57509e-07 272.212 
-0.89 -0.43 -1.65133 1.12018 0.00908374 0.00872734 -4.17298e-05 0.00891059 1.57283e-07 272.055 
-0.97 -0.41 -0.345864 1.16688 0.0090882 0.0087673 -5.06654e-05 0.0089347 1.57599e-07 272.243 
-0.79 -0.45 -3.01158 0.514313 0.00910236 0.00876526 7.63527e-07 0.0089431 1.5775e-07 272.238 
-0.87 -0.43 -1.93451 0.836934 0.00908851 0.0087307 -3.8577e-05 0.00891744 1.57342e-07 272.16 
-0.95 -0.41 -0.602549 1.27302 0.00909641 0.00875657 -4.68478e-05 0.00893739 1.57609e-07 272.308 
-0.77 -0.45 -3.40029 0.392297 0.00911179 0.0087771 5.54e-06 0.00895144 1.578e-07 272.406 
-0.85 -0.43 -2.3209 0.885778 0.00910611 0.00874045 -3.15893e-05 0.00893067 1.57631e-07 272.065 
-0.93 -0.41 -1.23567 1.4115 0.0090973 0.00873004 -4.61332e-05 0.00892567 1.57492e-07 272.152 
-0.75 -0.45 -3.70102 0.488014 0.00911325 0.00878616 9.10689e-06 0.00895555 1.57967e-07 272.243 
-0.83 -0.43 -2.69022 0.841218 0.00910836 0.00875009 -2.10464e-05 0.00893572 1.57594e-07 272.283 
-0.91 -0.41 -1.4063 1.33094 0.00910311 0.00873735 -4.16148e-05 0.00892876 1.57607e-07 272.048 
-0.99 -0.39 -0.163073 1.69212 0.00908531 0.00877591 -5.36376e-05 0.00893988 1.57855e-07 271.959 
-0.81 -0.43 -3.03269 0.992064 0.00911394 0.00873743 -1.8401e-05 0.00893652 1.57664e-07 272.187 
-0.89 -0.41 -1.71871 1.3463 0.00910352 0.00873068 -4.50105e-05 0.0089253 1.5742e-07 272.267 
-0.97 -0.39 -0.557668 1.41137 0.0090989 0.00877076 -5.61818e-05 0.00894082 1.57769e-07 272.136 
-0.79 -0.43 -3.3721 0.836521 0.00912105 0.0087563 -9.59357e-06 0.00895117 1.57937e-07 272.161 
-0.87 -0.41 -2.12111 1.26032 0.00910811 0.00872715 -4.05183e-05 0.00893154 1.57482e-07 272.348 
-0.95 -0.39 -0.91867 1.61983 0.00909875 0.00874717 -5.29611e-05 0.00892962 1.57479e-07 272.296 
-0.77 -0.43 -3.65555 0.754595 0.00912708 0.00877251 3.62668e-08 0.00895882 1.58055e-07 272.19 
-0.85 -0.41 -2.65215 1.17833 0.00910425 0.00873478 -3.931e-05 0.00893076 1.57644e-07 272.045 
-0.93 -0.39 -0.87036 1.63761 0.00910603 0.00873179 -4.70641e-05 0.00892825 1.5754e-07 272.148 
-0.83 -0.41 -2.787 1.21206 0.0091151 0.00873837 -3.09719e-05 0.00893103 1.57621e-07 272.094 
-0.91 -0.39 -1.29686 1.79798 0.00911041 0.0087353 -4.87107e-05 0.00893459 1.57646e-07 272.159 
-0.99 -0.37 0.0205765 1.99609 0.00909266 0.00878701 -6.35695e-05 0.00894845 1.58006e-07 271.96 
-0.81 -0.41 -3.05955 1.30331 0.00911937 0.00873171 -2.10439e-05 0.00893346 1.57764e-07 271.92 
-0.89 -0.39 -1.64698 1.6065 0.00911794 0.00873564 -4.68348e-05 0.00893989 1.57691e-07 272.242 
-0.97 -0.37 -0.453726 1.91668 0.00909698 0.00876077 -6.22172e-05 0.00893815 1.57781e-07 272.033 
-0.79 -0.41 -3.40689 1.09062 0.00913294 0.00875046 -2.037e-05 0.00895234 1.57995e-07 272.096 
-0.87 -0.39 -1.95439 1.66147 0.00911908 0.00871689 -4.59878e-05 0.00892964 1.57625e-07 272.044 
-0.95 -0.37 -0.861322 1.7988 0.00910466 0.00874296 -5.54768e-05 0.00893336 1.57701e-07 272.026 
-0.77 -0.41 -3.77458 1.13471 0.00914366 0.00877299 -1.52784e-05 0.00897052 1.58297e-07 272.13 
-0.85 -0.39 -2.26154 1.59467 0.00912901 0.0087366 -4.11672e-05 0.00894348 1.57907e-07 271.98 
-0.93 -0.37 -1.23929 1.86686 0.00910907 0.00873214 -5.76598e-05 0.00893257 1.57702e-07 272 
-0.75 -0.41 -4.01808 0.957314 0.00915561 0.00878068 -1.28375e-05 0.00897994 1.58401e-07 272.236 
-0.83 -0.39 -2.66875 1.52343 0.0091261 0.00872301 -3.80607e-05 0.0089317 1.57695e-07 271.986 
-0.91 -0.37 -1.42964 1.99944 0.00912137 0.00873149 -5.92486e-05 0.00893654 1.57623e-07 272.258 
-0.99 -0.35 -0.218021 2.17289 0.00909989 0.00878635 -7.556e-05 0.00895372 1.5827e-07 271.666 
-0.81 -0.39 -2.99318 1.50656 0.00913676 0.00873334 -3.48917e-05 0.00894536 1.57815e-07 272.194 
-0.89 -0.37 -1.70044 1.97855 0.00912737 0.00873052 -5.06447e-05 0.00893848 1.57844e-07 271.935 
-0.97 -0.35 -0.410428 2.3949 0.00910529 0.00874985 -6.7026e-05 0.00894022 1.57863e-07 271.956 
-0.79 -0.39 -3.31084 1.52293 0.00914265 0.00873989 -2.74668e-05 0.00895262 1.58075e-07 271.968 
-0.87 -0.37 -2.13205 2.10129 0.00912949 0.00871854 -5.02528e-05 0.00893611 1.57706e-07 272.101 
-0.95 -0.35 -0.79603 2.09223 0.00911659 0.00874094 -6.46382e-05 0.00893747 1.57797e-07 271.986 
-0.77 -0.39 -3.77491 1.47673 0.00915082 0.00877328 -2.25661e-05 0.00897391 1.58364e-07 272.116 
-0.85 -0.37 -2.53656 1.98893 0.00913269 0.00872827 -5.04274e-05 0.00893903 1.57855e-07 271.933 
-0.93 -0.35 -1.18412 2.23763 0.00912412 0.00873344 -6.45735e-05 0.00893899 1.57829e-07 271.977 
-0.83 -0.37 -2.98882 1.76637 0.00914141 0.00871918 -4.06003e-05 0.00893623 1.57794e-07 271.953 
-0.91 -0.35 -1.50839 2.32935 0.00912166 0.00873147 -5.82806e-05 0.00893332 1.57656e-07 272.103 
-0.81 -0.37 -3.26653 1.81367 0.00914668 0.00872953 -3.58791e-05 0.00895006 1.57967e-07 272.076 
-0.89 -0.35 -1.86874 2.45359 0.00912206 0.00872251 -5.53869e-05 0.00892933 1.57684e-07 271.932 
-0.79 -0.37 -3.6834 1.94082 0.00914877 0.00873663 -3.26272e-05 0.00896001 1.58238e-07 271.913 
-0.87 -0.35 -2.27722 2.33107 0.00913338 0.0087202 -5.69375e-05 0.00893634 1.57748e-07 272.035 
-0.77 -0.37 -3.89836 1.94854 0.00915489 0.00876734 -2.85464e-05 0.00897011 1.58202e-07 272.28 
-0.85 -0.35 -2.64299 2.42945 0.00914137 0.00871925 -5.09208e-05 0.00893957 1.57888e-07 271.893 
-0.83 -0.35 -2.99565 2.14762 0.00914409 0.00871662 -4.79174e-05 0.00893845 1.57956e-07 271.742 
-0.81 -0.35 -3.42888 2.23571 0.00915071 0.00872642 -4.73619e-05 0.00895163 1.5802e-07 272.032 
-0.79 -0.35 -3.75226 2.23948 0.00916725 0.00873361 -4.2548e-05 0.00896001 1.58253e-07 271.886 
-0.77 -0.35 -3.96507 2.21578 0.00917862 0.00875579 -3.4686e-05 0.00897708 1.58339e-07 272.257 
-0.75 -0.35 -4.25054 2.24696 0.00918673 0.0087709 -2.90344e-05 0.00898692 1.58606e-07 272.096 
-0.75 -0.49 -2.72162 0.16535 0.00907694 0.00879281 2.73063e-05 0.00893803 1.57565e-07 272.404 
-0.75 -0.43 -3.91368 0.690916 0.00913893 0.00878485 -3.68028e-06 0.00897174 1.58146e-07 272.427 
-0.75 -0.39 -4.38062 1.37614 0.00915082 0.00877477 -1.97545e-05 0.00897502 1.5839e-07 272.106 
-0.75 -0.37 -4.23288 1.85852 0.00916073 0.00877122 -1.69741e-05 0.00897351 1.58379e-07 272.079 
-0.77 -0.33 -3.93086 2.49717 0.00916511 0.00874646 -4.77288e-05 0.00896333 1.58403e-07 271.729 
-0.73 -0.49 -2.99857 0.177317 0.00908565 0.00881293 2.62208e-05 0.0089563 1.5792e-07 272.346 
-0.73 -0.47 -3.33455 0.329027 0.00911092 0.00880363 2.30026e-05 0.00896891 1.58166e-07 272.306 
-0.73 -0.45 -3.8712 0.441186 0.009128 0.00880431 1.21836e-05 0.00897344 1.58236e-07 272.323 
-0.73 -0.43 -4.28999 0.86122 0.0091473 0.00880057 -2.30365e-07 0.00898321 1.58378e-07 272.375 
-0.73 -0.41 -4.40569 1.15494 0.00916382 0.00879731 -7.71709e-06 0.00898901 1.5857e-07 272.221 
-0.73 -0.39 -4.51408 1.4161 0.00915476 0.0087888 -8.88881e-06 0.00897622 1.58445e-07 272.048 
-0.73 -0.37 -4.77918 1.70013 0.00916464 0.0087756 -2.43609e-05 0.0089741 1.58473e-07 271.935 
-0.73 -0.35 -4.52707 1.93218 0.00918886 0.00877997 -2.43246e-05 0.00898853 1.58672e-07 272.031 
-0.81 -0.29 -3.26464 3.38221 0.00916209 0.00872029 -6.54958e-05 0.00894836 1.58096e-07 271.802 
-0.89 -0.27 -1.9384 3.81256 0.00912688 0.00869797 -8.88621e-05 0.00892993 1.57746e-07 271.844 
-0.97 -0.25 -0.507036 3.70832 0.00908809 0.00872462 -0.000112968 0.00891857 1.57705e-07 271.568 
-0.83 -0.29 -2.89878 3.41686 0.00915419 0.00871698 -6.89263e-05 0.00894531 1.57831e-07 272.165 
-0.91 -0.27 -1.48252 3.87923 0.00912723 0.00870821 -9.15004e-05 0.00893247 1.57755e-07 271.906 
-0.99 -0.25 -0.183673 3.77895 0.00908422 0.00875811 -0.000119472 0.00893481 1.58005e-07 271.548 
-0.79 -0.29 -3.57165 3.26811 0.00916874 0.00872387 -6.25744e-05 0.00895216 1.58161e-07 271.806 
-0.87 -0.27 -2.34958 3.96079 0.00913301 0.00870234 -7.62128e-05 0.00893714 1.5785e-07 271.884 
-0.95 -0.25 -0.785098 3.82114 0.00910222 0.00871701 -0.000106781 0.00892532 1.57798e-07 271.614 
-0.77 -0.29 -3.96704 3.31176 0.0091798 0.00873549 -5.66671e-05 0.00896775 1.58363e-07 271.931 
-0.85 -0.27 -2.69949 3.75132 0.00914937 0.00871451 -7.32693e-05 0.00894524 1.5796e-07 271.941 
-0.93 -0.25 -1.11045 4.06972 0.00910744 0.00870634 -0.000106656 0.00892083 1.57619e-07 271.785 
-0.75 -0.29 -4.53 3.24776 0.00918789 0.00875735 -5.49762e-05 0.00898423 1.58622e-07 271.987 
-0.83 -0.27 -3.12839 3.6229 0.00915804 0.00872024 -7.23346e-05 0.00895173 1.57983e-07 272.099 
-0.91 -0.25 -1.50062 4.22469 0.00911547 0.00869682 -9.88279e-05 0.00892186 1.57647e-07 271.769 
-0.99 -0.23 -0.0744652 4.03761 0.00906573 0.00874971 -0.000128512 0.00892155 1.5773e-07 271.617 
-0.81 -0.27 -3.51392 3.79226 0.00916143 0.00871622 -7.75374e-05 0.00894732 1.58068e-07 271.819 
-0.89 -0.25 -1.86605 4.18836 0.00912706 0.00869595 -8.74658e-05 0.00893136 1.57712e-07 271.947 
-0.97 -0.23 -0.359775 4.06173 0.00908149 0.00872892 -0.000121046 0.00891811 1.57708e-07 271.55 
-0.79 -0.27 -3.99556 3.65728 0.00917337 0.00871899 -6.92572e-05 0.00894927 1.58268e-07 271.534 
-0.87 -0.25 -2.18747 4.31823 0.00913651 0.00869921 -8.98415e-05 0.00893879 1.57947e-07 271.768 
-0.95 -0.23 -0.829633 4.2378 0.00908819 0.00870777 -0.000121217 0.00890956 1.57474e-07 271.692 
-0.77 -0.27 -4.33482 3.71991 0.00917357 0.00873351 -6.27711e-05 0.00896496 1.58446e-07 271.705 
-0.85 -0.25 -2.60521 4.16737 0.00914917 0.0087113 -9.09961e-05 0.00894448 1.57927e-07 271.974 
-0.93 -0.23 -1.20993 4.42441 0.00910276 0.0087019 -0.00011308 0.00891641 1.57497e-07 271.861 
-0.83 -0.25 -3.10591 4.12533 0.00915848 0.0087082 -8.10738e-05 0.00893999 1.58038e-07 271.648 
-0.91 -0.23 -1.53159 4.45398 0.00911059 0.00868663 -0.000102725 0.00891878 1.57513e-07 271.907 
-0.99 -0.21 -0.0182457 4.19606 0.00908892 0.00874471 -0.000134945 0.00892853 1.57839e-07 271.642 
-0.81 -0.25 -3.40079 4.16777 0.00916399 0.00872522 -7.44032e-05 0.00895344 1.58192e-07 271.792 
-0.89 -0.23 -1.92864 4.77381 0.0091201 0.00869618 -0.000103857 0.00892349 1.57598e-07 271.903 
-0.97 -0.21 -0.254929 4.43921 0.00909678 0.00871467 -0.000131401 0.00891572 1.57644e-07 271.588 
-0.79 -0.25 -3.83757 4.21275 0.00915469 0.00870811 -7.66643e-05 0.00894226 1.58156e-07 271.513 
-0.87 -0.23 -2.4232 4.58919 0.00913631 0.00869501 -0.000105272 0.00892808 1.57772e-07 271.743 
-0.95 -0.21 -0.644915 4.64292 0.00910313 0.00870998 -0.000124172 0.00891848 1.57569e-07 271.801 
-0.77 -0.25 -4.2476 3.88122 0.00916649 0.00873361 -7.53045e-05 0.00895584 1.58305e-07 271.671 
-0.85 -0.23 -2.70206 4.65415 0.00914007 0.00870666 -9.41271e-05 0.00893353 1.5784e-07 271.792 
-0.93 -0.21 -1.19288 4.85774 0.00910335 0.00869059 -0.000122544 0.00891148 1.57591e-07 271.55 
-0.83 -0.23 -3.10015 4.57612 0.00913777 0.00869668 -8.6024e-05 0.00892793 1.57817e-07 271.662 
-0.91 -0.21 -1.50974 4.77539 0.00911258 0.00868246 -0.000116159 0.00891525 1.57596e-07 271.655 
-0.99 -0.19 -0.222741 4.44475 0.00907739 0.00873635 -0.000148999 0.00891881 1.57619e-07 271.725 
-0.81 -0.23 -3.57161 4.38216 0.0091461 0.00871774 -8.00565e-05 0.00894517 1.58029e-07 271.82 
-0.89 -0.21 -1.87139 5.23111 0.00912716 0.00870138 -0.000112769 0.00893195 1.57745e-07 271.907 
-0.97 -0.19 -0.571114 4.74438 0.00908611 0.00870445 -0.000135866 0.00890532 1.57421e-07 271.655 
-0.79 -0.23 -3.69742 4.57825 0.00916179 0.00871763 -7.72823e-05 0.00895307 1.58185e-07 271.792 
-0.87 -0.21 -2.19927 5.00642 0.00912864 0.00868003 -0.000109322 0.00892049 1.5773e-07 271.585 
-0.95 -0.19 -0.841199 5.02183 0.00909709 0.00870973 -0.000132215 0.00891284 1.57554e-07 271.655 
-0.77 -0.23 -4.02862 4.29036 0.00916398 0.00872878 -8.61363e-05 0.00895358 1.58263e-07 271.673 
-0.85 -0.21 -2.7481 5.00522 0.00913439 0.00869776 -9.63122e-05 0.00892941 1.57796e-07 271.742 
-0.93 -0.19 -0.90309 5.2233 0.00910612 0.00868671 -0.000126433 0.00891274 1.57628e-07 271.524 
-0.75 -0.23 -4.55772 4.03011 0.00917541 0.008743 -8.31741e-05 0.00896921 1.58471e-07 271.791 
-0.83 -0.21 -3.09771 4.86163 0.00914711 0.00869691 -9.25589e-05 0.00893424 1.57797e-07 271.887 
-0.91 -0.19 -1.35432 5.25657 0.00910855 0.00867757 -0.000125073 0.0089072 1.57456e-07 271.651 
-0.81 -0.21 -3.39003 4.74623 0.00915272 0.00871134 -8.74744e-05 0.00894899 1.58146e-07 271.736 
-0.89 -0.19 -1.85951 5.54269 0.00911604 0.00869263 -0.000116979 0.00892087 1.57584e-07 271.848 
-0.79 -0.21 -3.75532 4.85492 0.00915314 0.0087197 -8.90054e-05 0.00895058 1.58267e-07 271.576 
-0.87 -0.19 -2.32582 5.37755 0.00911579 0.00867876 -0.00010865 0.00891665 1.57639e-07 271.624 
-0.77 -0.21 -4.14254 4.75428 0.00916501 0.0087333 -9.18618e-05 0.00896015 1.58399e-07 271.64 
-0.85 -0.19 -2.61834 5.41485 0.00912027 0.00868548 -0.000108809 0.00891843 1.57622e-07 271.708 
-0.75 -0.21 -4.58501 4.52176 0.00916778 0.00874104 -9.32959e-05 0.00896625 1.58422e-07 271.785 
-0.83 -0.19 -2.97588 5.20134 0.00912259 0.00869823 -0.000105298 0.00892798 1.57767e-07 271.749 
-0.81 -0.19 -3.30525 5.16264 0.00914073 0.00869806 -9.89202e-05 0.00893375 1.57956e-07 271.599 
-0.79 -0.19 -3.82999 5.18339 0.00915937 0.00873297 -9.70529e-05 0.00896331 1.58339e-07 271.839 
-0.77 -0.19 -4.09928 5.21002 0.00916948 0.0087307 -0.000102711 0.00896427 1.58422e-07 271.724 
-0.99 -0.33 -0.0960607 2.43605 0.00909834 0.00877905 -8.35631e-05 0.00894818 1.58031e-07 271.908 
-0.97 -0.33 -0.443791 2.60809 0.00911451 0.008749 -8.0688e-05 0.00894249 1.57903e-07 271.955 
-0.91 -0.33 -1.56341 2.74546 0.00914139 0.00872406 -6.53684e-05 0.00893868 1.57739e-07 272.122 
-0.99 -0.31 -0.201594 2.80791 0.0090909 0.00876923 -9.62332e-05 0.0089401 1.57951e-07 271.8 
-0.97 -0.31 -0.416245 2.83596 0.00909608 0.00874678 -8.93167e-05 0.00893241 1.57936e-07 271.592 
-0.87 -0.33 -2.25382 2.83501 0.00915036 0.0087233 -5.95478e-05 0.00894756 1.5791e-07 272.097 
-0.95 -0.31 -0.806713 3.03644 0.00910648 0.00872504 -8.36718e-05 0.00892782 1.57641e-07 271.962 
-0.85 -0.33 -2.50634 2.69673 0.0091458 0.00871191 -5.50951e-05 0.00894024 1.57739e-07 272.171 
-0.93 -0.31 -1.17629 2.9696 0.00912296 0.0087282 -8.31087e-05 0.0089389 1.57763e-07 272.088 
-0.91 -0.31 -1.47539 3.00447 0.00913396 0.00871647 -6.91205e-05 0.00894203 1.57705e-07 272.284 
-0.99 -0.29 -0.135695 3.101 0.00908423 0.00876735 -0.00010247 0.00893989 1.57975e-07 271.752 
-0.81 -0.33 -3.47132 2.61558 0.00915675 0.00872699 -5.10252e-05 0.00895192 1.58141e-07 271.833 
-0.89 -0.31 -1.7864 3.12539 0.00913784 0.00871348 -6.45021e-05 0.00893918 1.57802e-07 272.03 
-0.97 -0.29 -0.430619 3.13096 0.00909589 0.00873922 -9.68841e-05 0.00892915 1.57716e-07 271.871 
-0.87 -0.31 -2.25624 3.14008 0.00914253 0.00871929 -6.22853e-05 0.00893887 1.57895e-07 271.859 
-0.95 -0.29 -0.771261 3.39096 0.00910491 0.00872094 -9.78854e-05 0.00892658 1.57583e-07 272.024 
-0.85 -0.31 -2.56676 2.93415 0.00914908 0.00870975 -6.06921e-05 0.00894127 1.57928e-07 271.876 
-0.93 -0.29 -1.11686 3.21413 0.009109 0.00871857 -8.73839e-05 0.00892348 1.57613e-07 271.877 
-0.83 -0.31 -2.8475 3.08135 0.00915602 0.00871903 -5.72642e-05 0.00894916 1.57966e-07 272.051 
-0.91 -0.29 -1.34744 3.44491 0.00911039 0.00870566 -8.1519e-05 0.00891798 1.57511e-07 271.886 
-0.99 -0.27 -0.13066 3.43042 0.00909452 0.00875981 -0.000109832 0.00894163 1.58136e-07 271.529 
-0.81 -0.31 -3.1493 3.05234 0.00916112 0.00872057 -5.82785e-05 0.00895657 1.58061e-07 272.111 
-0.89 -0.29 -1.73891 3.47045 0.00912567 0.00871057 -7.61539e-05 0.00892953 1.57667e-07 271.969 
-0.97 -0.27 -0.522631 3.40984 0.00910129 0.00873736 -0.000106015 0.00893337 1.57798e-07 271.86 
-0.79 -0.31 -3.66368 2.75772 0.00916764 0.0087298 -5.58893e-05 0.00895614 1.58236e-07 271.798 
-0.87 -0.29 -2.0746 3.56518 0.00914007 0.00871357 -6.49539e-05 0.00893984 1.57868e-07 271.935 
-0.95 -0.27 -0.643849 3.65197 0.00910284 0.00871553 -9.92206e-05 0.00892209 1.57564e-07 271.919 
-0.77 -0.31 -4.18037 2.88966 0.00917023 0.00873987 -5.06637e-05 0.00895522 1.58226e-07 271.788 
-0.85 -0.29 -2.60311 3.29726 0.0091453 0.00870865 -6.50361e-05 0.00893523 1.57806e-07 271.903 
-0.93 -0.27 -1.01964 3.56259 0.00911248 0.00870919 -9.40436e-05 0.00892019 1.57413e-07 272.121 
-0.95 -0.33 -0.713018 2.58436 0.00912081 0.00872907 -7.36959e-05 0.00893747 1.57843e-07 271.906 
-0.93 -0.33 -1.10418 2.5858 0.00913151 0.00873454 -6.56882e-05 0.00894214 1.57833e-07 272.066 
-0.89 -0.33 -2.00488 2.6951 0.00915022 0.00871837 -6.10682e-05 0.00894134 1.57785e-07 272.125 
-0.83 -0.33 -2.92038 2.67607 0.00914828 0.00871366 -5.41685e-05 0.00894544 1.57966e-07 271.938 
-0.75 -0.31 -4.50269 2.80291 0.00917356 0.00875358 -4.76946e-05 0.00897467 1.58439e-07 272.011 
-0.75 -0.27 -4.5421 3.71753 0.00918716 0.00875296 -6.60295e-05 0.00898124 1.58673e-07 271.808 
-0.75 -0.25 -4.37168 3.79807 0.00917476 0.0087489 -6.9512e-05 0.00896727 1.58459e-07 271.752 
-0.75 -0.19 -4.44603 4.97319 0.00916979 0.00873862 -9.38806e-05 0.0089669 1.58469e-07 271.723 
-0.79 -0.33 -3.63157 2.39855 0.0091566 0.0087317 -5.20951e-05 0.00895496 1.58229e-07 271.774 
-0.75 -0.33 -4.29638 2.52736 0.009175 0.00876021 -3.77794e-05 0.00897519 1.58538e-07 271.856 
-0.81 -0.17 -3.56214 5.57466 0.00912587 0.00869199 -0.000113008 0.00892056 1.57775e-07 271.509 
-0.79 -0.17 -3.89508 5.60116 0.00914025 0.00873253 -0.000115417 0.0089534 1.58198e-07 271.78 
-0.75 -0.17 -4.46853 5.45934 0.00916247 0.00873815 -0.000105638 0.00896109 1.58285e-07 271.864 
-0.73 -0.31 -4.87269 2.90314 0.0091922 0.00877642 -4.85582e-05 0.00899433 1.58793e-07 271.999 
-0.73 -0.29 -4.80534 3.17443 0.00918448 0.00877124 -5.42878e-05 0.00899093 1.58799e-07 271.886 
-0.73 -0.27 -4.89357 3.30552 0.00919779 0.00877516 -6.40354e-05 0.00899663 1.5885e-07 271.97 
-0.73 -0.25 -4.64304 3.77853 0.00918071 0.00877002 -6.67207e-05 0.00898311 1.58768e-07 271.703 
-0.73 -0.23 -4.86815 4.19998 0.00918792 0.00877145 -7.65763e-05 0.00898849 1.58864e-07 271.701 
-0.73 -0.21 -4.86266 4.40313 0.00917976 0.00876434 -9.3502e-05 0.00898471 1.58676e-07 271.908 
-0.73 -0.19 -4.90603 4.68085 0.00917187 0.00877333 -9.92373e-05 0.00898067 1.58663e-07 271.809 
-0.79 -0.05 -3.33504 7.64928 0.0090618 0.00871993 -0.000152775 0.00890522 1.57479e-07 271.552 
-0.87 -0.03 -2.22449 8.25605 0.00900449 0.00863079 -0.000176433 0.00883597 1.5637e-07 271.351 
-0.83 -0.05 -2.71784 8.00525 0.00904071 0.00868139 -0.000153864 0.0088833 1.57113e-07 271.514 
-0.91 -0.03 -1.53839 8.28729 0.00899475 0.00862543 -0.000188092 0.00883161 1.56245e-07 271.434 
-0.81 -0.05 -2.95707 7.64086 0.00905479 0.00869745 -0.000146088 0.00889664 1.57297e-07 271.604 
-0.89 -0.03 -1.84417 8.29594 0.00899859 0.00862906 -0.000179336 0.00883194 1.56328e-07 271.299 
-0.77 -0.05 -3.68363 7.30346 0.00906925 0.00872324 -0.000154635 0.00891429 1.57578e-07 271.657 
-0.85 -0.03 -2.50395 8.15583 0.00900923 0.00864733 -0.000175006 0.00885013 1.56605e-07 271.378 
-0.75 -0.05 -3.95489 7.08964 0.00907351 0.00874937 -0.00015898 0.00892265 1.57685e-07 271.727 
-0.83 -0.03 -2.70735 8.33528 0.00902696 0.0086699 -0.000163962 0.00886924 1.56923e-07 271.412 
-0.81 -0.03 -3.10193 7.91849 0.00903671 0.00869497 -0.000158116 0.00888243 1.57102e-07 271.506 
-0.79 -0.03 -3.21223 8.05984 0.00904863 0.00872186 -0.000158764 0.00890157 1.57468e-07 271.46 
-0.77 -0.03 -3.65278 7.55835 0.00905706 0.00872643 -0.000159603 0.00890409 1.57479e-07 271.516 
-0.95 -0.17 -0.70566 5.22618 0.00907968 0.00869552 -0.000142495 0.00889872 1.57379e-07 271.526 
-0.99 -0.15 -0.149683 4.98777 0.00903386 0.00870718 -0.000172555 0.00888888 1.57189e-07 271.553 
-0.89 -0.17 -2.02667 5.83318 0.0091033 0.00867337 -0.000124579 0.00890579 1.57327e-07 271.83 
-0.97 -0.15 -0.536495 5.44809 0.00905772 0.00870268 -0.000164253 0.00889207 1.57192e-07 271.645 
-0.95 -0.15 -0.869576 5.66498 0.00906668 0.0086821 -0.000151725 0.00888455 1.57129e-07 271.524 
-0.93 -0.15 -1.24586 6.0282 0.00907176 0.00867022 -0.000139948 0.00888425 1.57193e-07 271.406 
-0.83 -0.17 -3.08858 5.61805 0.00912544 0.00870404 -0.000109269 0.00893161 1.57825e-07 271.759 
-0.91 -0.15 -1.49733 6.10885 0.00908598 0.0086809 -0.000137584 0.00890244 1.57392e-07 271.617 
-0.99 -0.13 -0.251869 5.37049 0.00903818 0.00870509 -0.000187701 0.00888636 1.57096e-07 271.637 
-0.89 -0.15 -1.72441 6.16068 0.00908801 0.00866025 -0.000128525 0.00889138 1.57205e-07 271.602 
-0.97 -0.13 -0.552359 5.82985 0.00904567 0.00868385 -0.000173104 0.00888068 1.5712e-07 271.422 
-0.87 -0.15 -2.40213 6.15166 0.00909697 0.00867986 -0.000126384 0.00890804 1.57386e-07 271.798 
-0.95 -0.13 -1.00722 6.04603 0.00905976 0.00867139 -0.000162393 0.00887994 1.57154e-07 271.34 
-0.77 -0.17 -4.20878 5.2951 0.00915285 0.00872594 -0.000104993 0.00895761 1.58254e-07 271.811 
-0.85 -0.15 -2.70779 6.30249 0.00911276 0.00867587 -0.000118663 0.00891217 1.57637e-07 271.492 
-0.93 -0.13 -1.17902 6.17618 0.00907706 0.00866941 -0.000156128 0.0088916 1.572e-07 271.617 
-0.83 -0.15 -3.04575 5.93658 0.00912455 0.0086962 -0.000117885 0.00892413 1.57788e-07 271.595 
-0.91 -0.13 -1.59513 6.45418 0.00908005 0.00866334 -0.000146315 0.00889076 1.5726e-07 271.487 
-0.99 -0.11 -0.0820127 5.69417 0.00904319 0.00869484 -0.000186662 0.00888315 1.57002e-07 271.702 
-0.81 -0.15 -3.42658 6.02826 0.00913165 0.00870793 -0.000120314 0.00893233 1.57936e-07 271.59 
-0.89 -0.13 -1.96765 6.65892 0.0090875 0.00866364 -0.000133838 0.00889284 1.57299e-07 271.485 
-0.97 -0.11 -0.479491 6.21203 0.00903666 0.00867284 -0.000179923 0.00887304 1.56981e-07 271.429 
-0.79 -0.15 -3.81368 5.84196 0.00913191 0.00872224 -0.000121373 0.00894637 1.58189e-07 271.582 
-0.87 -0.13 -2.38628 6.65524 0.00909456 0.00866825 -0.000135389 0.00889875 1.57392e-07 271.505 
-0.95 -0.11 -0.77905 6.33049 0.00904348 0.00866706 -0.000174684 0.00887303 1.57085e-07 271.249 
-0.77 -0.15 -4.13989 5.6554 0.0091329 0.00872247 -0.000115919 0.00894555 1.58213e-07 271.515 
-0.85 -0.13 -2.71235 6.42084 0.00910106 0.00867503 -0.000128483 0.00890352 1.57512e-07 271.444 
-0.93 -0.11 -1.30791 6.68396 0.0090529 0.00865712 -0.00016518 0.00887275 1.57053e-07 271.296 
-0.75 -0.15 -4.38238 5.57185 0.00914139 0.00873861 -0.000111202 0.00895485 1.58334e-07 271.59 
-0.83 -0.13 -3.01825 6.40103 0.00910946 0.00869242 -0.000130122 0.00891525 1.57497e-07 271.827 
-0.91 -0.11 -1.7 6.82979 0.00905931 0.00864954 -0.000151302 0.00887521 1.5707e-07 271.341 
-0.99 -0.09 -0.115362 5.86979 0.00900479 0.00868133 -0.000199569 0.00885589 1.56714e-07 271.366 
-0.81 -0.13 -3.51714 6.39845 0.00911281 0.00870618 -0.000122575 0.00892687 1.57886e-07 271.509 
-0.89 -0.11 -2.0365 7.05162 0.00907326 0.00866048 -0.00014572 0.00888607 1.57307e-07 271.264 
-0.97 -0.09 -0.325808 6.70551 0.00902746 0.00866576 -0.000187408 0.00886651 1.5687e-07 271.42 
-0.79 -0.13 -3.70902 6.22139 0.00912055 0.00871758 -0.000121366 0.00893553 1.57924e-07 271.708 
-0.87 -0.11 -2.26187 6.93962 0.00908301 0.00866339 -0.000140329 0.00889299 1.57344e-07 271.411 
-0.95 -0.09 -0.815239 6.77233 0.00903768 0.00865942 -0.000179655 0.0088726 1.56882e-07 271.586 
-0.77 -0.13 -3.99428 5.98483 0.00912298 0.00871785 -0.000119259 0.00893382 1.58037e-07 271.462 
-0.85 -0.11 -2.65128 6.84629 0.00908544 0.00867306 -0.000134042 0.00889541 1.57435e-07 271.328 
-0.93 -0.09 -1.16021 6.95022 0.00904101 0.00864721 -0.000171173 0.00886772 1.57046e-07 271.153 
-0.83 -0.11 -3.10404 6.85538 0.00908589 0.00868593 -0.000131187 0.00890485 1.57548e-07 271.422 
-0.91 -0.09 -1.41636 7.19072 0.00904605 0.00864047 -0.000160845 0.00886263 1.5693e-07 271.198 
-0.99 -0.07 -0.210554 6.18644 0.00900352 0.00867642 -0.000201723 0.00885638 1.56662e-07 271.47 
-0.81 -0.11 -3.36826 6.58979 0.00909584 0.00870697 -0.000132734 0.00891845 1.57528e-07 271.871 
-0.89 -0.09 -1.83362 7.39045 0.00905601 0.00865425 -0.000159273 0.00887536 1.57111e-07 271.275 
-0.97 -0.07 -0.52514 6.97405 0.00899667 0.0086539 -0.000201683 0.00884586 1.56501e-07 271.427 
-0.79 -0.11 -3.63276 6.53083 0.00910448 0.00871248 -0.000130564 0.00892619 1.57877e-07 271.506 
-0.87 -0.09 -2.07776 7.23053 0.00906837 0.00865598 -0.000148982 0.00888424 1.57266e-07 271.279 
-0.95 -0.07 -0.748906 7.15158 0.00899797 0.00865132 -0.000186222 0.00884828 1.56526e-07 271.458 
-0.77 -0.11 -4.01548 6.22137 0.00912204 0.00871528 -0.000131859 0.00893254 1.5795e-07 271.572 
-0.85 -0.09 -2.41287 7.24669 0.00907789 0.00866778 -0.000142594 0.00888935 1.57243e-07 271.475 
-0.93 -0.07 -1.18795 7.40179 0.00901131 0.00863413 -0.000181424 0.00884771 1.56639e-07 271.245 
-0.75 -0.11 -4.43405 6.10896 0.00913508 0.00874958 -0.000132496 0.00895522 1.58328e-07 271.611 
-0.83 -0.09 -2.73308 7.21117 0.00908693 0.00868259 -0.000138037 0.00890273 1.57454e-07 271.519 
-0.91 -0.07 -1.5918 7.52376 0.00902828 0.00863881 -0.000174714 0.00885714 1.56713e-07 271.405 
-0.99 -0.05 -0.103316 6.59895 0.00898009 0.00866693 -0.000214594 0.00883875 1.56392e-07 271.398 
-0.81 -0.09 -3.21662 6.98949 0.00909506 0.00871089 -0.000139747 0.0089175 1.57699e-07 271.547 
-0.89 -0.07 -1.88123 7.62083 0.0090387 0.00864656 -0.000166794 0.00886745 1.56939e-07 271.331 
-0.97 -0.05 -0.531453 7.16491 0.00899998 0.00864609 -0.000203607 0.00884577 1.56525e-07 271.383 
-0.79 -0.09 -3.66511 6.87965 0.0090951 0.00871281 -0.000138147 0.00891903 1.57721e-07 271.555 
-0.87 -0.07 -2.21625 7.67419 0.00904261 0.00864331 -0.000158178 0.00886184 1.5674e-07 271.503 
-0.95 -0.05 -0.799125 7.55675 0.00900793 0.00864371 -0.000195259 0.00884563 1.56504e-07 271.415 
-0.77 -0.09 -4.0002 6.68678 0.00909353 0.00871668 -0.000136635 0.00891993 1.5779e-07 271.463 
-0.85 -0.07 -2.47472 7.48969 0.00905131 0.00865827 -0.000150238 0.00887609 1.56982e-07 271.519 
-0.93 -0.05 -1.16452 7.82201 0.00900355 0.00862668 -0.000182357 0.00883759 1.56437e-07 271.284 
-0.75 -0.09 -4.30817 6.52888 0.00909395 0.00874739 -0.000143768 0.0089343 1.57994e-07 271.551 
-0.83 -0.07 -2.92732 7.72021 0.00906012 0.00868748 -0.000144758 0.00888961 1.57095e-07 271.739 
-0.91 -0.05 -1.51192 7.9406 0.00900522 0.00863143 -0.000180347 0.00884063 1.56456e-07 271.345 
-0.99 -0.03 -0.211376 6.96033 0.00895667 0.00865387 -0.000228892 0.00882181 1.561e-07 271.384 
-0.81 -0.07 -3.21167 7.44784 0.00906007 0.00870257 -0.000146047 0.0088994 1.57308e-07 271.669 
-0.89 -0.05 -1.8251 7.93438 0.00900807 0.00863553 -0.000175677 0.00884538 1.56578e-07 271.28 