ITEM: TIMESTEP
1040500
ITEM: NUMBER OF CELLS
5000
ITEM: BOX BOUNDS ss ss pp
-1 1
-0.5 0.5
-0.5 0.5
ITEM: CELLS xc yc f_U[*] f_V[*] f_Tau[1] f_Tau[2] f_Tau[3] f_Press[*] f_Mrho[*] f_Ttra[*] 
-0.99 -0.49 -0.209241 0.269286 0.00899662 0.00874977 -2.6635e-05 0.00888647 1.56745e-07 272.249 
-0.97 -0.49 -0.51213 0.0415828 0.00899304 0.00874838 -3.05104e-05 0.00888368 1.56568e-07 272.471 
-0.95 -0.49 -0.6371 0.048143 0.0089917 0.00875081 -3.08424e-05 0.00888127 1.56656e-07 272.243 
-0.93 -0.49 -0.858202 0.151468 0.00899964 0.00874966 -2.2318e-05 0.00888307 1.56749e-07 272.137 
-0.91 -0.49 -1.16511 0.111472 0.00900174 0.00872548 -2.03705e-05 0.00886833 1.56461e-07 272.187 
-0.99 -0.47 -0.177855 0.510903 0.00901492 0.00876934 -1.66751e-05 0.00890331 1.56998e-07 272.325 
-0.89 -0.49 -1.53954 0.229859 0.0090145 0.00873919 -2.36581e-05 0.0088802 1.5674e-07 272.065 
-0.97 -0.47 -0.436412 0.326505 0.00901759 0.00874692 -3.31213e-05 0.00889604 1.5679e-07 272.463 
-0.87 -0.49 -1.71153 0.0155471 0.00903466 0.00875885 -1.62439e-05 0.00889907 1.57059e-07 272.09 
-0.95 -0.47 -0.696884 0.315905 0.00902541 0.00875347 -3.1537e-05 0.00889944 1.56899e-07 272.379 
-0.85 -0.49 -1.94679 0.114479 0.00903783 0.00875387 -9.773e-06 0.00889825 1.56895e-07 272.348 
-0.93 -0.47 -0.933385 0.349424 0.00902643 0.00874305 -3.33538e-05 0.00889068 1.56807e-07 272.27 
-0.83 -0.49 -2.05062 -0.0285619 0.00904664 0.00876687 -4.2372e-07 0.00891274 1.57154e-07 272.343 
-0.91 -0.47 -1.24506 0.58721 0.00903975 0.00873042 -2.91218e-05 0.00889045 1.56884e-07 272.13 
-0.99 -0.45 -0.102565 0.88625 0.00905075 0.0087712 -2.81759e-05 0.00892044 1.57248e-07 272.416 
-0.81 -0.49 -2.18669 0.227064 0.00905848 0.0087726 1.22038e-05 0.00892264 1.5738e-07 272.253 
-0.89 -0.47 -1.61775 0.444614 0.00904321 0.00873816 -3.10561e-05 0.00888995 1.56948e-07 272.004 
-0.97 -0.45 -0.424278 0.579137 0.00904974 0.00875916 -3.31559e-05 0.00891678 1.5724e-07 272.317 
-0.79 -0.49 -2.49009 0.0810083 0.00906836 0.00878009 1.08932e-05 0.00893187 1.57503e-07 272.323 
-0.87 -0.47 -1.91772 0.233474 0.00904488 0.0087465 -2.8001e-05 0.00890331 1.57164e-07 272.038 
-0.95 -0.45 -0.780277 0.625433 0.00905003 0.00874734 -3.56114e-05 0.00890829 1.57053e-07 272.383 
-0.77 -0.49 -2.49444 -0.037403 0.00907026 0.00879085 2.35586e-05 0.00894041 1.57599e-07 272.416 
-0.85 -0.47 -1.97131 0.343478 0.00905604 0.00875055 -1.55182e-05 0.00891315 1.57152e-07 272.358 
-0.93 -0.45 -1.18056 0.56134 0.00905979 0.00874209 -4.02874e-05 0.00890685 1.57129e-07 272.206 
-0.83 -0.47 -2.39213 0.182123 0.00906407 0.00875726 -1.07256e-05 0.00891899 1.57288e-07 272.302 
-0.91 -0.45 -1.33196 0.7956 0.0090568 0.00873348 -3.6143e-05 0.00889573 1.57075e-07 271.96 
-0.99 -0.43 -0.183257 1.10161 0.0090552 0.00876706 -3.47073e-05 0.00892718 1.57588e-07 272.034 
-0.81 -0.47 -2.63436 0.452569 0.00907339 0.00876355 -3.52411e-06 0.00892989 1.57417e-07 272.412 
-0.89 -0.45 -1.63738 0.832474 0.00906984 0.00873169 -3.8121e-05 0.00890167 1.57137e-07 272.035 
-0.97 -0.43 -0.469007 0.955199 0.00907212 0.0087684 -3.75723e-05 0.00893282 1.57545e-07 272.279 
-0.79 -0.47 -2.93683 0.359076 0.00908417 0.0087725 8.37644e-06 0.00894162 1.57657e-07 272.353 
-0.87 -0.45 -2.00493 0.49735 0.00907531 0.00874295 -2.56556e-05 0.00891217 1.57261e-07 272.14 
-0.95 -0.43 -0.78138 0.933157 0.0090796 0.00875007 -4.55955e-05 0.00892186 1.57448e-07 272.113 
-0.77 -0.47 -3.20908 0.0585168 0.0090938 0.00878015 1.13792e-05 0.00894697 1.57847e-07 272.189 
-0.85 -0.45 -2.32995 0.475129 0.00907893 0.00873967 -2.31267e-05 0.0089186 1.57367e-07 272.153 
-0.93 -0.43 -0.989544 0.946931 0.00908279 0.00874034 -3.88821e-05 0.00891595 1.57272e-07 272.236 
-0.75 -0.47 -3.25119 0.34789 0.00910547 0.00879553 1.86862e-05 0.00895491 1.57793e-07 272.524 
-0.83 -0.45 -2.55707 0.593095 0.0090886 0.00875749 -2.1192e-05 0.00893056 1.57571e-07 272.165 
-0.91 -0.43 -1.483 1.01704 0.00908956 0.00873744 -4.23402e-05 0.00891627 1.57311e-07 272.179 
-0.99 -0.41 -0.145493 1.41743 0.00908098 0.00877035 -4.7967e-05 0.0089384 1.57749e-07 272.097 
-0.81 -0.45 -2.89744 0.799935 0.00909228 0.00874661 -1.17698e-05 0.00892846 1.575e-07 272.223 
-0.89 -0.43 -1.63555 1.12639 0.00908454 0.00872691 -4.1589e-05 0.00891102 1.57292e-07 272.051 
-0.97 -0.41 -0.346685 1.17465 0.00908764 0.00876727 -5.0994e-05 0.00893435 1.57585e-07 272.256 
-0.79 -0.45 -3.01814 0.529497 0.00910221 0.00876488 5.99168e-07 0.00894274 1.57745e-07 272.237 
-0.87 -0.43 -1.93465 0.84185 0.0090886 0.00873032 -3.85855e-05 0.00891747 1.57347e-07 272.154 
-0.95 -0.41 -0.584616 1.28443 0.00909557 0.0087568 -4.70482e-05 0.00893714 1.57603e-07 272.311 
-0.77 -0.45 -3.39383 0.391315 0.00911129 0.0087768 5.65918e-06 0.00895052 1.57782e-07 272.409 
-0.85 -0.43 -2.32383 0.866908 0.00910658 0.00874115 -3.15396e-05 0.00893126 1.57639e-07 272.069 
-0.93 -0.41 -1.22194 1.39558 0.00909713 0.0087307 -4.61331e-05 0.0089257 1.57494e-07 272.15 
-0.75 -0.45 -3.68366 0.475837 0.00911382 0.00878707 9.00603e-06 0.00895606 1.57979e-07 272.238 
-0.83 -0.43 -2.68279 0.850047 0.00910932 0.0087503 -2.07932e-05 0.00893604 1.576e-07 272.282 
-0.91 -0.41 -1.40415 1.32142 0.00910336 0.00873743 -4.14089e-05 0.00892892 1.57605e-07 272.056 
-0.99 -0.39 -0.159649 1.71002 0.00908581 0.00877656 -5.41067e-05 0.00894094 1.57869e-07 271.968 
-0.81 -0.43 -3.03621 0.995197 0.0091143 0.00873769 -1.83328e-05 0.00893703 1.57666e-07 272.198 
-0.89 -0.41 -1.71246 1.35938 0.00910394 0.00873043 -4.49565e-05 0.00892554 1.57417e-07 272.278 
-0.97 -0.39 -0.55406 1.41731 0.00909977 0.00877071 -5.61949e-05 0.00894135 1.57768e-07 272.154 
-0.79 -0.43 -3.36171 0.842081 0.00912097 0.00875555 -9.18013e-06 0.00895034 1.57925e-07 272.156 
-0.87 -0.41 -2.10929 1.26984 0.009109 0.0087271 -4.02682e-05 0.00893164 1.5749e-07 272.339 
-0.95 -0.39 -0.918075 1.61579 0.00909957 0.00874777 -5.31156e-05 0.00892996 1.57482e-07 272.302 
-0.77 -0.43 -3.64812 0.741586 0.00912798 0.00877274 1.18434e-08 0.0089589 1.58048e-07 272.204 
-0.85 -0.41 -2.62897 1.15887 0.00910509 0.00873535 -3.91245e-05 0.00893122 1.57653e-07 272.044 
-0.93 -0.39 -0.862892 1.64021 0.00910669 0.00873199 -4.713e-05 0.00892876 1.57539e-07 272.165 
-0.83 -0.41 -2.77797 1.21769 0.00911549 0.0087381 -3.09272e-05 0.00893092 1.57624e-07 272.085 
-0.91 -0.39 -1.28374 1.7932 0.00911133 0.00873538 -4.85498e-05 0.00893483 1.5764e-07 272.176 
-0.99 -0.37 0.025758 2.00072 0.0090924 0.0087875 -6.38721e-05 0.00894866 1.57998e-07 271.981 
-0.81 -0.41 -3.06034 1.30707 0.00911936 0.00873183 -2.03744e-05 0.00893347 1.57763e-07 271.923 
-0.89 -0.39 -1.62503 1.62106 0.00911827 0.00873493 -4.65189e-05 0.00893972 1.5768e-07 272.256 
-0.97 -0.37 -0.448219 1.93711 0.00909671 0.0087606 -6.2571e-05 0.0089382 1.57784e-07 272.03 
-0.79 -0.41 -3.39424 1.07978 0.00913303 0.00875025 -2.02786e-05 0.00895177 1.57985e-07 272.097 
-0.87 -0.39 -1.92482 1.66754 0.00911905 0.00871732 -4.60391e-05 0.00892968 1.57632e-07 272.033 
-0.95 -0.37 -0.857155 1.80211 0.00910455 0.00874337 -5.56038e-05 0.00893333 1.57705e-07 272.019 
-0.77 -0.41 -3.75415 1.13167 0.00914317 0.00877342 -1.50774e-05 0.0089702 1.58276e-07 272.155 
-0.85 -0.39 -2.26529 1.58559 0.00912903 0.00873633 -4.08537e-05 0.0089434 1.57902e-07 271.985 
-0.93 -0.37 -1.23861 1.87562 0.00910941 0.00873269 -5.76201e-05 0.00893326 1.57704e-07 272.018 
-0.75 -0.41 -4.01008 0.962375 0.0091558 0.0087807 -1.23866e-05 0.00898028 1.58404e-07 272.241 
-0.83 -0.39 -2.67889 1.53 0.00912605 0.00872314 -3.77062e-05 0.00893161 1.57705e-07 271.966 
-0.91 -0.37 -1.42424 2.00036 0.00912098 0.00873142 -5.86634e-05 0.00893668 1.57627e-07 272.255 
-0.99 -0.35 -0.226218 2.18817 0.00909997 0.00878726 -7.56925e-05 0.00895429 1.58264e-07 271.693 
-0.81 -0.39 -3.00201 1.50874 0.0091373 0.00873381 -3.48422e-05 0.00894561 1.57822e-07 272.19 
-0.89 -0.37 -1.70431 1.9823 0.00912661 0.00873031 -5.02121e-05 0.00893809 1.5784e-07 271.931 
-0.97 -0.35 -0.404274 2.3989 0.00910535 0.00875009 -6.72468e-05 0.00894033 1.57861e-07 271.962 
-0.79 -0.39 -3.31069 1.52045 0.0091431 0.0087394 -2.72235e-05 0.0089525 1.58078e-07 271.958 
-0.87 -0.37 -2.1228 2.11166 0.0091288 0.00871856 -5.00122e-05 0.00893583 1.57708e-07 272.089 
-0.95 -0.35 -0.789586 2.10555 0.00911685 0.00874117 -6.52552e-05 0.00893776 1.57801e-07 271.987 
-0.77 -0.39 -3.76157 1.4885 0.0091513 0.0087738 -2.24705e-05 0.00897397 1.58362e-07 272.121 
-0.85 -0.37 -2.54093 1.99654 0.0091319 0.00872734 -5.01111e-05 0.00893828 1.57843e-07 271.93 
-0.93 -0.35 -1.16983 2.23253 0.00912392 0.00873314 -6.43345e-05 0.00893931 1.57828e-07 271.988 
-0.83 -0.37 -2.9874 1.77491 0.00914161 0.00872046 -4.04493e-05 0.0089367 1.578e-07 271.957 
-0.91 -0.35 -1.50585 2.33541 0.00912196 0.0087309 -5.75337e-05 0.00893406 1.57662e-07 272.115 
-0.81 -0.37 -3.26555 1.81966 0.00914611 0.00872953 -3.56222e-05 0.00894978 1.5796e-07 272.079 
-0.89 -0.35 -1.87023 2.45975 0.00912271 0.00872262 -5.46359e-05 0.00893038 1.57703e-07 271.933 
-0.79 -0.37 -3.67945 1.93227 0.0091484 0.00873625 -3.29688e-05 0.00895951 1.58227e-07 271.915 
-0.87 -0.35 -2.28228 2.32749 0.00913369 0.00872034 -5.66064e-05 0.00893716 1.57762e-07 272.036 
-0.77 -0.37 -3.9031 1.94172 0.0091547 0.00876858 -2.83702e-05 0.00896994 1.58183e-07 272.308 
-0.85 -0.35 -2.64382 2.44629 0.00914175 0.00871984 -5.1326e-05 0.00893976 1.57891e-07 271.893 
-0.83 -0.35 -3.01994 2.14995 0.00914412 0.00871674 -4.7873e-05 0.00893831 1.57949e-07 271.75 
-0.81 -0.35 -3.42254 2.23747 0.00915111 0.00872699 -4.74677e-05 0.00895185 1.58016e-07 272.046 
-0.79 -0.35 -3.74761 2.22813 0.009167 0.00873358 -4.27058e-05 0.00895985 1.58251e-07 271.884 
-0.77 -0.35 -3.96724 2.22052 0.00917847 0.00875637 -3.51615e-05 0.00897687 1.58341e-07 272.245 
-0.75 -0.35 -4.24108 2.24369 0.00918636 0.00877058 -2.8403e-05 0.00898658 1.58604e-07 272.088 
-0.75 -0.49 -2.71586 0.178725 0.00907731 0.00879432 2.75752e-05 0.00893861 1.57576e-07 272.403 
-0.75 -0.43 -3.90761 0.683688 0.00913954 0.00878545 -3.74817e-06 0.00897222 1.58157e-07 272.422 
-0.75 -0.39 -4.36418 1.3793 0.00915087 0.00877447 -1.90073e-05 0.00897501 1.58385e-07 272.114 
-0.75 -0.37 -4.24666 1.86113 0.00916043 0.00877078 -1.63107e-05 0.00897337 1.58381e-07 272.071 
-0.77 -0.33 -3.94258 2.48536 0.00916502 0.00874647 -4.73273e-05 0.00896329 1.58397e-07 271.737 
-0.73 -0.49 -2.99965 0.164086 0.00908539 0.00881265 2.61295e-05 0.00895566 1.57916e-07 272.334 
-0.73 -0.47 -3.32833 0.312544 0.00911111 0.00880353 2.30404e-05 0.00896878 1.58159e-07 272.314 
-0.73 -0.45 -3.86199 0.437064 0.00912824 0.00880466 1.17096e-05 0.00897389 1.58244e-07 272.323 
-0.73 -0.43 -4.28076 0.861445 0.00914703 0.0088 2.96229e-08 0.00898302 1.58376e-07 272.373 
-0.73 -0.41 -4.3959 1.15756 0.00916408 0.00879676 -6.72855e-06 0.00898951 1.58575e-07 272.227 
-0.73 -0.39 -4.50839 1.42819 0.00915462 0.00878839 -7.80717e-06 0.00897629 1.58449e-07 272.043 
-0.73 -0.37 -4.77914 1.70959 0.00916453 0.00877521 -2.39314e-05 0.00897424 1.58476e-07 271.936 
-0.73 -0.35 -4.52652 1.93298 0.00918863 0.00877991 -2.39682e-05 0.00898838 1.58659e-07 272.049 
-0.81 -0.29 -3.25898 3.37735 0.00916118 0.00872101 -6.52765e-05 0.00894817 1.58096e-07 271.796 
-0.89 -0.27 -1.93819 3.81267 0.00912812 0.00869831 -8.88385e-05 0.00893076 1.57766e-07 271.836 
-0.97 -0.25 -0.491565 3.7088 0.00908792 0.00872507 -0.00011217 0.00891858 1.577e-07 271.578 
-0.83 -0.29 -2.91356 3.39792 0.00915442 0.00871762 -6.88457e-05 0.00894547 1.57848e-07 272.141 
-0.91 -0.27 -1.482 3.89329 0.00912809 0.00870821 -9.09888e-05 0.00893275 1.5776e-07 271.906 
-0.99 -0.25 -0.180802 3.78332 0.00908413 0.00875955 -0.000119012 0.00893503 1.58003e-07 271.557 
-0.79 -0.29 -3.57035 3.25991 0.00916686 0.00872385 -6.26464e-05 0.00895146 1.58147e-07 271.809 
-0.87 -0.27 -2.35623 3.98067 0.00913359 0.00870378 -7.61756e-05 0.00893806 1.57867e-07 271.883 
-0.95 -0.25 -0.795327 3.82774 0.00910252 0.00871778 -0.000106088 0.00892546 1.57802e-07 271.611 
-0.77 -0.29 -3.9649 3.31567 0.00917854 0.00873594 -5.70078e-05 0.00896721 1.58356e-07 271.928 
-0.85 -0.27 -2.70915 3.76104 0.00914862 0.00871507 -7.35432e-05 0.00894539 1.57965e-07 271.937 
-0.93 -0.25 -1.12773 4.07216 0.00910798 0.00870602 -0.000105954 0.00892095 1.5762e-07 271.787 
-0.75 -0.29 -4.52539 3.24755 0.00918735 0.00875729 -5.50277e-05 0.00898397 1.58627e-07 271.97 
-0.83 -0.27 -3.12975 3.62033 0.00915677 0.0087196 -7.25229e-05 0.00895062 1.57972e-07 272.085 
-0.91 -0.25 -1.51885 4.23309 0.009116 0.00869705 -9.88275e-05 0.00892209 1.57648e-07 271.774 
-0.99 -0.23 -0.0667597 4.01003 0.00906681 0.00875023 -0.00012867 0.00892245 1.57737e-07 271.632 
-0.81 -0.27 -3.51299 3.78494 0.00916058 0.00871624 -7.75184e-05 0.00894709 1.58062e-07 271.822 
-0.89 -0.25 -1.87068 4.18789 0.00912754 0.00869632 -8.73979e-05 0.00893183 1.5772e-07 271.947 
-0.97 -0.23 -0.358826 4.07077 0.00908197 0.00872936 -0.000120735 0.0089184 1.57698e-07 271.576 
-0.79 -0.27 -3.99078 3.64431 0.00917348 0.00871971 -6.94428e-05 0.00894963 1.58268e-07 271.546 
-0.87 -0.25 -2.17897 4.33659 0.00913694 0.00869988 -8.98221e-05 0.00893928 1.57944e-07 271.788 
-0.95 -0.23 -0.837465 4.24351 0.00908823 0.00870837 -0.000121079 0.00890976 1.57475e-07 271.697 
-0.77 -0.27 -4.33694 3.72427 0.00917434 0.00873362 -6.33121e-05 0.00896526 1.58451e-07 271.705 
-0.85 -0.25 -2.60196 4.16592 0.00914946 0.00871178 -9.08227e-05 0.00894494 1.5794e-07 271.966 
-0.93 -0.23 -1.19995 4.41395 0.00910329 0.00870155 -0.000113441 0.00891638 1.575e-07 271.855 
-0.83 -0.25 -3.11819 4.10992 0.00915836 0.00870818 -8.08294e-05 0.00893974 1.58031e-07 271.652 
-0.91 -0.23 -1.52551 4.45467 0.0091107 0.00868635 -0.000102496 0.0089182 1.57505e-07 271.903 
-0.99 -0.21 -0.0187316 4.17703 0.00908916 0.00874523 -0.000134816 0.00892902 1.57839e-07 271.656 
-0.81 -0.25 -3.40673 4.15686 0.00916408 0.00872519 -7.46613e-05 0.00895342 1.58183e-07 271.806 
-0.89 -0.23 -1.92422 4.75284 0.00912043 0.00869685 -0.000103705 0.00892392 1.57606e-07 271.902 
-0.97 -0.21 -0.252217 4.45033 0.00909675 0.00871514 -0.000131331 0.00891583 1.57637e-07 271.602 
-0.79 -0.25 -3.8531 4.20479 0.00915453 0.00870894 -7.72754e-05 0.00894258 1.58159e-07 271.518 
-0.87 -0.23 -2.41925 4.59841 0.00913599 0.00869535 -0.000104913 0.00892809 1.5778e-07 271.73 
-0.95 -0.21 -0.644596 4.63821 0.00910321 0.00871032 -0.000124362 0.0089189 1.57577e-07 271.8 
-0.77 -0.25 -4.23288 3.87338 0.00916691 0.00873396 -7.57933e-05 0.0089562 1.58307e-07 271.679 
-0.85 -0.23 -2.68705 4.64017 0.00914019 0.00870752 -9.40635e-05 0.00893414 1.57852e-07 271.79 
-0.93 -0.21 -1.18031 4.83876 0.00910245 0.00869004 -0.000122239 0.00891088 1.57579e-07 271.551 
-0.83 -0.23 -3.08532 4.56907 0.00913803 0.00869649 -8.66744e-05 0.00892786 1.57812e-07 271.667 
-0.91 -0.21 -1.50144 4.76665 0.00911172 0.00868164 -0.000116694 0.00891433 1.57584e-07 271.647 
-0.99 -0.19 -0.235274 4.44029 0.00907751 0.00873722 -0.000149284 0.00891913 1.57622e-07 271.728 
-0.81 -0.23 -3.5686 4.36989 0.00914652 0.00871775 -8.0669e-05 0.00894496 1.58014e-07 271.839 
-0.89 -0.21 -1.86041 5.21567 0.00912669 0.00870131 -0.000112967 0.00893194 1.57748e-07 271.902 
-0.97 -0.19 -0.573215 4.74932 0.00908628 0.00870508 -0.000136072 0.00890515 1.57411e-07 271.666 
-0.79 -0.23 -3.70276 4.56988 0.00916242 0.00871831 -7.77898e-05 0.00895349 1.5818e-07 271.814 
-0.87 -0.21 -2.21008 5.01442 0.00912797 0.00868021 -0.000109362 0.00892021 1.57726e-07 271.583 
-0.95 -0.19 -0.831455 5.01614 0.00909745 0.00870994 -0.000132324 0.00891288 1.57562e-07 271.642 
-0.77 -0.23 -4.02464 4.28406 0.00916408 0.00872935 -8.65306e-05 0.00895345 1.58261e-07 271.673 
-0.85 -0.21 -2.75866 5.00041 0.00913399 0.00869871 -9.64103e-05 0.00892969 1.57796e-07 271.751 
-0.93 -0.19 -0.901076 5.22289 0.00910634 0.00868568 -0.000126866 0.00891238 1.57621e-07 271.525 
-0.75 -0.23 -4.54636 4.03945 0.00917491 0.00874323 -8.32233e-05 0.00896875 1.58472e-07 271.775 
-0.83 -0.21 -3.11797 4.8608 0.00914739 0.00869664 -9.28477e-05 0.00893454 1.57798e-07 271.895 
-0.91 -0.19 -1.34646 5.25246 0.00910922 0.00867762 -0.000125316 0.00890753 1.57459e-07 271.657 
-0.81 -0.21 -3.40105 4.73848 0.00915282 0.0087107 -8.76824e-05 0.00894859 1.58144e-07 271.727 
-0.89 -0.19 -1.86718 5.5363 0.00911574 0.00869213 -0.000116815 0.00892056 1.57585e-07 271.836 
-0.79 -0.21 -3.76027 4.84117 0.00915295 0.00871994 -8.93268e-05 0.00895027 1.58263e-07 271.573 
-0.87 -0.19 -2.3428 5.39187 0.00911617 0.00867938 -0.00010905 0.00891715 1.5765e-07 271.621 
-0.77 -0.21 -4.15472 4.72724 0.0091649 0.00873339 -9.16093e-05 0.00895995 1.58392e-07 271.646 
-0.85 -0.19 -2.64166 5.43181 0.00912011 0.00868598 -0.000108683 0.0089186 1.57623e-07 271.712 
-0.75 -0.21 -4.58462 4.52528 0.00916716 0.00874102 -9.31861e-05 0.00896586 1.58406e-07 271.8 
-0.83 -0.19 -2.98612 5.19013 0.00912216 0.00869734 -0.000105003 0.00892743 1.57764e-07 271.737 
-0.81 -0.19 -3.3121 5.17119 0.00914046 0.00869797 -9.86835e-05 0.00893388 1.57958e-07 271.599 
-0.79 -0.19 -3.82407 5.17282 0.0091593 0.00873316 -9.74587e-05 0.00896362 1.58342e-07 271.842 
-0.77 -0.19 -4.09503 5.19761 0.00916916 0.00872978 -0.000102475 0.00896366 1.58422e-07 271.706 
-0.99 -0.33 -0.0924278 2.44877 0.00909934 0.00877927 -8.33026e-05 0.00894845 1.58027e-07 271.923 
-0.97 -0.33 -0.443101 2.62301 0.00911448 0.00874988 -8.07855e-05 0.00894303 1.57907e-07 271.966 
-0.91 -0.33 -1.55899 2.74621 0.00914039 0.0087234 -6.58153e-05 0.00893796 1.57726e-07 272.124 
-0.99 -0.31 -0.207039 2.81125 0.00909111 0.00876913 -9.62705e-05 0.00894011 1.57946e-07 271.81 
-0.97 -0.31 -0.424724 2.8361 0.00909687 0.00874783 -8.8769e-05 0.00893325 1.57938e-07 271.614 
-0.87 -0.33 -2.26144 2.83179 0.00915108 0.00872372 -5.91961e-05 0.00894749 1.57907e-07 272.101 
-0.95 -0.31 -0.802261 3.04039 0.00910679 0.00872555 -8.35311e-05 0.00892843 1.5764e-07 271.98 
-0.85 -0.33 -2.51759 2.70842 0.00914628 0.00871255 -5.52732e-05 0.00894046 1.57744e-07 272.169 
-0.93 -0.31 -1.15464 2.97877 0.00912309 0.00872919 -8.29779e-05 0.00893943 1.57773e-07 272.086 
-0.91 -0.31 -1.46836 3.01792 0.00913391 0.00871645 -6.95977e-05 0.008942 1.57718e-07 272.259 
-0.99 -0.29 -0.135536 3.1052 0.00908521 0.00876772 -0.000102364 0.00894021 1.57978e-07 271.757 
-0.81 -0.33 -3.47517 2.62478 0.00915657 0.00872753 -5.09352e-05 0.00895227 1.58146e-07 271.835 
-0.89 -0.31 -1.78003 3.14877 0.00913753 0.00871334 -6.48754e-05 0.00893883 1.57803e-07 272.016 
-0.97 -0.29 -0.432035 3.14809 0.00909678 0.00874026 -9.68601e-05 0.00892974 1.57723e-07 271.878 
-0.87 -0.31 -2.25616 3.14242 0.00914257 0.00871973 -6.18352e-05 0.00893897 1.5789e-07 271.872 
-0.95 -0.29 -0.762569 3.38436 0.00910499 0.00872166 -9.7645e-05 0.00892695 1.57595e-07 272.015 
-0.85 -0.31 -2.57923 2.95372 0.0091494 0.00871063 -6.02581e-05 0.0089419 1.57935e-07 271.883 
-0.93 -0.29 -1.10102 3.2116 0.0091097 0.00872036 -8.72368e-05 0.00892475 1.57639e-07 271.872 
-0.83 -0.31 -2.85152 3.08053 0.00915607 0.00871919 -5.69715e-05 0.00894898 1.57966e-07 272.044 
-0.91 -0.29 -1.33761 3.46051 0.0091103 0.00870597 -8.11348e-05 0.00891805 1.57511e-07 271.888 
-0.99 -0.27 -0.124652 3.44021 0.0090959 0.00876147 -0.000109875 0.00894275 1.58157e-07 271.527 
-0.81 -0.31 -3.1413 3.04879 0.00916129 0.00872099 -5.88852e-05 0.00895709 1.58064e-07 272.122 
-0.89 -0.29 -1.73728 3.49466 0.0091247 0.00871057 -7.63255e-05 0.00892893 1.57662e-07 271.959 
-0.97 -0.27 -0.515775 3.40326 0.00910209 0.00873857 -0.000105349 0.00893429 1.57818e-07 271.852 
-0.79 -0.31 -3.6613 2.75605 0.00916744 0.0087298 -5.63029e-05 0.00895602 1.58232e-07 271.801 
-0.87 -0.29 -2.06786 3.57743 0.00913924 0.00871442 -6.55611e-05 0.00893973 1.57869e-07 271.93 
-0.95 -0.27 -0.641944 3.64364 0.00910345 0.00871601 -9.87716e-05 0.008923 1.57578e-07 271.922 
-0.77 -0.31 -4.1869 2.88386 0.0091694 0.00873987 -5.08538e-05 0.00895526 1.58228e-07 271.785 
-0.85 -0.29 -2.60672 3.30131 0.00914477 0.00870923 -6.49501e-05 0.00893567 1.57828e-07 271.878 
-0.93 -0.27 -1.02015 3.5562 0.00911282 0.00871042 -9.34713e-05 0.00892095 1.57422e-07 272.129 
-0.95 -0.33 -0.698011 2.58942 0.00912035 0.00872898 -7.40213e-05 0.0089374 1.57835e-07 271.919 
-0.93 -0.33 -1.09541 2.59594 0.0091304 0.00873451 -6.55773e-05 0.00894129 1.57818e-07 272.065 
-0.89 -0.33 -2.0134 2.7188 0.00915049 0.00871893 -6.09591e-05 0.0089417 1.57783e-07 272.138 
-0.83 -0.33 -2.92654 2.67621 0.00914785 0.00871354 -5.44462e-05 0.00894482 1.57961e-07 271.926 
-0.75 -0.31 -4.53277 2.79759 0.00917254 0.00875368 -4.76959e-05 0.00897451 1.5844e-07 272.004 
-0.75 -0.27 -4.52962 3.72092 0.00918761 0.00875334 -6.62456e-05 0.00898163 1.58674e-07 271.82 
-0.75 -0.25 -4.37133 3.79608 0.00917504 0.00874927 -7.00622e-05 0.00896805 1.58476e-07 271.747 
-0.75 -0.19 -4.44116 4.96593 0.00916955 0.00873884 -9.34772e-05 0.00896668 1.58461e-07 271.731 
-0.79 -0.33 -3.64052 2.39637 0.00915705 0.00873165 -5.21814e-05 0.00895474 1.58224e-07 271.776 
-0.75 -0.33 -4.29895 2.53068 0.00917532 0.00876051 -3.75761e-05 0.00897538 1.58543e-07 271.855 
-0.81 -0.17 -3.55111 5.57322 0.00912584 0.00869218 -0.000113506 0.0089207 1.57777e-07 271.511 
-0.79 -0.17 -3.88017 5.59535 0.00914008 0.00873197 -0.000114949 0.00895281 1.58185e-07 271.784 
-0.75 -0.17 -4.4631 5.45772 0.00916155 0.00873769 -0.000105327 0.00896037 1.58272e-07 271.865 
-0.73 -0.31 -4.87809 2.88816 0.00919209 0.00877686 -4.83667e-05 0.00899472 1.58786e-07 272.024 
-0.73 -0.29 -4.80991 3.16855 0.00918465 0.00877155 -5.46014e-05 0.00899107 1.58793e-07 271.9 
-0.73 -0.27 -4.89009 3.30549 0.00919809 0.00877591 -6.46755e-05 0.00899672 1.58845e-07 271.982 
-0.73 -0.25 -4.63066 3.79114 0.00918084 0.00877043 -6.69844e-05 0.00898336 1.58764e-07 271.717 
-0.73 -0.23 -4.85779 4.19532 0.00918777 0.00877212 -7.66006e-05 0.00898866 1.5886e-07 271.714 
-0.73 -0.21 -4.86576 4.3859 0.00917913 0.00876468 -9.35993e-05 0.00898489 1.58671e-07 271.923 
-0.73 -0.19 -4.89258 4.67151 0.00917176 0.00877363 -9.90572e-05 0.00898097 1.58659e-07 271.824 
-0.79 -0.05 -3.33309 7.61858 0.00906151 0.00871972 -0.000152827 0.00890464 1.57473e-07 271.545 
-0.87 -0.03 -2.2305 8.25034 0.00900517 0.00863078 -0.000176748 0.00883636 1.56377e-07 271.351 
-0.83 -0.05 -2.74138 8.00605 0.00904015 0.00868206 -0.000154035 0.00888359 1.57116e-07 271.517 
-0.91 -0.03 -1.55769 8.28903 0.00899407 0.00862571 -0.000188099 0.00883106 1.56244e-07 271.419 
-0.81 -0.05 -2.96457 7.64466 0.00905452 0.00869759 -0.000146895 0.00889634 1.57292e-07 271.604 
-0.89 -0.03 -1.84894 8.29466 0.00899867 0.00862967 -0.000179459 0.00883262 1.56345e-07 271.291 
-0.77 -0.05 -3.67715 7.3027 0.00906791 0.00872288 -0.000154781 0.0089132 1.57564e-07 271.649 
-0.85 -0.03 -2.50102 8.16969 0.00900979 0.0086477 -0.000175134 0.00885063 1.56611e-07 271.382 
-0.75 -0.05 -3.94285 7.09582 0.00907251 0.00874924 -0.000159005 0.00892203 1.57673e-07 271.73 
-0.83 -0.03 -2.69847 8.32515 0.00902734 0.00867134 -0.000164161 0.00886996 1.56933e-07 271.417 
-0.81 -0.03 -3.09252 7.90222 0.00903578 0.00869516 -0.000158522 0.00888171 1.57099e-07 271.49 
-0.79 -0.03 -3.20789 8.05457 0.00904764 0.00872104 -0.000158702 0.00890062 1.57458e-07 271.448 
-0.77 -0.03 -3.66595 7.55596 0.00905647 0.00872655 -0.000159369 0.00890408 1.57478e-07 271.519 
-0.95 -0.17 -0.712246 5.21259 0.00907971 0.00869517 -0.00014261 0.0088986 1.57375e-07 271.529 
-0.99 -0.15 -0.135961 4.97494 0.00903531 0.00870774 -0.000172399 0.00888977 1.57207e-07 271.55 
-0.89 -0.17 -2.043 5.84177 0.00910298 0.00867293 -0.000125162 0.00890535 1.57324e-07 271.823 
-0.97 -0.15 -0.526263 5.44086 0.00905863 0.00870312 -0.000164467 0.00889288 1.57207e-07 271.645 
-0.95 -0.15 -0.882942 5.64935 0.00906769 0.00868176 -0.000151977 0.00888486 1.57141e-07 271.513 
-0.93 -0.15 -1.25929 6.02016 0.00907268 0.0086703 -0.000140705 0.00888485 1.57207e-07 271.399 
-0.83 -0.17 -3.09261 5.60992 0.00912509 0.00870302 -0.000108945 0.00893122 1.57821e-07 271.753 
-0.91 -0.15 -1.50519 6.11851 0.00908624 0.00868033 -0.000138262 0.00890242 1.57393e-07 271.614 
-0.99 -0.13 -0.246708 5.36255 0.00903808 0.00870457 -0.000188006 0.00888634 1.57096e-07 271.636 
-0.89 -0.15 -1.72806 6.16623 0.00908765 0.00865886 -0.000128685 0.00889031 1.57182e-07 271.61 
-0.97 -0.13 -0.540793 5.82552 0.00904593 0.00868388 -0.000173343 0.00888107 1.5712e-07 271.435 
-0.87 -0.15 -2.40191 6.15912 0.00909721 0.00868015 -0.00012605 0.0089083 1.5739e-07 271.799 
-0.95 -0.13 -1.00405 6.04775 0.00905988 0.0086715 -0.000162547 0.00888029 1.57153e-07 271.353 
-0.77 -0.17 -4.18541 5.2977 0.00915237 0.00872515 -0.000104476 0.00895673 1.58242e-07 271.805 
-0.85 -0.15 -2.69708 6.30387 0.00911297 0.00867581 -0.000118889 0.00891266 1.57648e-07 271.487 
-0.93 -0.13 -1.19589 6.1719 0.00907666 0.00866934 -0.000156038 0.00889147 1.57203e-07 271.608 
-0.83 -0.15 -3.04209 5.93377 0.00912535 0.0086965 -0.000117923 0.00892518 1.57806e-07 271.597 
-0.91 -0.13 -1.60218 6.44167 0.00907905 0.00866235 -0.000146131 0.00889027 1.57255e-07 271.481 
-0.99 -0.11 -0.0806736 5.69563 0.00904372 0.0086942 -0.000187034 0.00888358 1.56997e-07 271.724 
-0.81 -0.15 -3.43545 6.01499 0.00913169 0.00870811 -0.00012002 0.00893241 1.57941e-07 271.584 
-0.89 -0.13 -1.97822 6.65824 0.00908667 0.00866267 -0.000134003 0.00889163 1.57276e-07 271.487 
-0.97 -0.11 -0.485088 6.21131 0.00903677 0.00867264 -0.00017978 0.00887341 1.56985e-07 271.433 
-0.79 -0.15 -3.82307 5.82881 0.00913084 0.00872119 -0.000121223 0.0089452 1.58176e-07 271.569 
-0.87 -0.13 -2.38645 6.66354 0.00909419 0.00866889 -0.000135609 0.00889875 1.57394e-07 271.502 
-0.95 -0.11 -0.779308 6.32959 0.00904395 0.00866695 -0.000174725 0.00887309 1.57095e-07 271.233 
-0.77 -0.15 -4.15529 5.64858 0.0091322 0.00872196 -0.000115267 0.00894493 1.58209e-07 271.505 
-0.85 -0.13 -2.69763 6.42339 0.00910059 0.00867533 -0.000128559 0.00890346 1.57521e-07 271.425 
-0.93 -0.11 -1.28879 6.67447 0.00905355 0.00865749 -0.000165073 0.00887342 1.5707e-07 271.287 
-0.75 -0.15 -4.38535 5.5792 0.00914159 0.00873902 -0.000111637 0.00895498 1.58342e-07 271.581 
-0.83 -0.13 -2.9971 6.4002 0.00910884 0.00869214 -0.000129997 0.00891545 1.57504e-07 271.821 
-0.91 -0.11 -1.6845 6.81754 0.00905995 0.00864945 -0.000151561 0.00887578 1.57076e-07 271.348 
-0.99 -0.09 -0.104214 5.87365 0.00900386 0.00868059 -0.000199522 0.00885495 1.56694e-07 271.371 
-0.81 -0.13 -3.5124 6.40093 0.00911224 0.00870639 -0.000122396 0.00892718 1.57894e-07 271.505 
-0.89 -0.11 -2.03774 7.05404 0.00907296 0.00865981 -0.000146164 0.00888599 1.57291e-07 271.288 
-0.97 -0.09 -0.32519 6.70747 0.00902703 0.00866599 -0.000187674 0.00886634 1.56857e-07 271.438 
-0.79 -0.13 -3.71369 6.22335 0.00911996 0.0087165 -0.00012081 0.0089344 1.57903e-07 271.709 
-0.87 -0.11 -2.26063 6.93332 0.00908212 0.00866355 -0.000140495 0.00889273 1.57336e-07 271.417 
-0.95 -0.09 -0.805284 6.77022 0.00903779 0.0086594 -0.000179893 0.00887243 1.56879e-07 271.586 
-0.77 -0.13 -4.00193 5.98778 0.00912313 0.00871811 -0.00011924 0.00893391 1.58039e-07 271.462 
-0.85 -0.11 -2.64734 6.84483 0.00908517 0.00867347 -0.000134625 0.00889544 1.57441e-07 271.318 
-0.93 -0.09 -1.16402 6.9461 0.00904101 0.0086475 -0.00017125 0.0088677 1.57049e-07 271.147 
-0.83 -0.11 -3.1098 6.84966 0.00908542 0.00868654 -0.0001313 0.00890539 1.57554e-07 271.427 
-0.91 -0.09 -1.42538 7.19031 0.00904539 0.00864065 -0.00016114 0.0088621 1.56929e-07 271.183 
-0.99 -0.07 -0.208259 6.18622 0.00900386 0.00867594 -0.000201987 0.00885603 1.56651e-07 271.479 
-0.81 -0.11 -3.38492 6.60272 0.00909542 0.00870671 -0.000132421 0.00891863 1.57535e-07 271.864 
-0.89 -0.09 -1.83777 7.37889 0.00905584 0.0086542 -0.000159702 0.00887527 1.57109e-07 271.275 
-0.97 -0.07 -0.511167 6.97352 0.00899657 0.00865368 -0.000201869 0.00884543 1.56495e-07 271.425 
-0.79 -0.11 -3.6511 6.53558 0.00910369 0.00871212 -0.00013109 0.00892564 1.57862e-07 271.514 
-0.87 -0.09 -2.06589 7.21929 0.00906806 0.00865595 -0.000149636 0.00888426 1.57263e-07 271.285 
-0.95 -0.07 -0.747406 7.15627 0.00899771 0.00865113 -0.000186204 0.00884808 1.56528e-07 271.449 
-0.77 -0.11 -4.01223 6.22178 0.00912149 0.00871551 -0.000132021 0.00893257 1.5795e-07 271.572 
-0.85 -0.09 -2.41297 7.2432 0.00907698 0.00866837 -0.000142833 0.00888958 1.57242e-07 271.484 
-0.93 -0.07 -1.19669 7.39839 0.00901096 0.00863455 -0.000181415 0.00884791 1.56641e-07 271.248 
-0.75 -0.11 -4.43707 6.11637 0.00913589 0.00875058 -0.0001321 0.00895627 1.58339e-07 271.625 
-0.83 -0.09 -2.72776 7.20145 0.00908669 0.00868311 -0.000138644 0.00890299 1.5746e-07 271.516 
-0.91 -0.07 -1.59046 7.52105 0.00902806 0.00863873 -0.000174781 0.00885721 1.56719e-07 271.398 
-0.99 -0.05 -0.112284 6.60159 0.00897959 0.00866678 -0.000214581 0.0088386 1.5639e-07 271.397 
-0.81 -0.09 -3.22118 6.99065 0.00909546 0.00871091 -0.000139818 0.00891803 1.57708e-07 271.548 
-0.89 -0.07 -1.87357 7.62111 0.00903864 0.00864732 -0.000167087 0.00886756 1.56938e-07 271.335 
-0.97 -0.05 -0.56059 7.14489 0.00899964 0.00864603 -0.00020367 0.00884591 1.56524e-07 271.39 
-0.79 -0.09 -3.66679 6.86066 0.00909532 0.00871234 -0.000138264 0.00891902 1.5772e-07 271.557 
-0.87 -0.07 -2.23247 7.65411 0.00904289 0.00864378 -0.000158856 0.00886237 1.56746e-07 271.509 
-0.95 -0.05 -0.796786 7.54911 0.00900752 0.00864336 -0.000195009 0.00884586 1.56514e-07 271.405 
-0.77 -0.09 -4.00972 6.67793 0.00909427 0.00871722 -0.000137325 0.00892087 1.57805e-07 271.467 
-0.85 -0.07 -2.48504 7.46535 0.00905142 0.00865904 -0.000150434 0.00887643 1.56983e-07 271.529 
-0.93 -0.05 -1.16867 7.81409 0.00900365 0.00862822 -0.000182655 0.0088384 1.56449e-07 271.289 
-0.75 -0.09 -4.30035 6.52582 0.0090944 0.00874747 -0.000143732 0.00893412 1.57985e-07 271.56 
-0.83 -0.07 -2.95098 7.7232 0.0090601 0.0086879 -0.00014508 0.00888957 1.57097e-07 271.734 
-0.91 -0.05 -1.52072 7.93591 0.0090052 0.00863147 -0.000180173 0.00884015 1.56447e-07 271.345 
-0.99 -0.03 -0.206542 6.96419 0.00895697 0.00865448 -0.000228673 0.00882221 1.56111e-07 271.378 
-0.81 -0.07 -3.22132 7.42841 0.00905995 0.00870231 -0.000146041 0.00889973 1.57311e-07 271.675 
-0.89 -0.05 -1.82641 7.92667 0.00900743 0.00863577 -0.000176128 0.00884518 1.56574e-07 271.279 
-0.97 -0.03 -0.484701 7.51105 0.00896472 0.0086312 -0.000211742 0.00881955 1.56238e-07 271.076 