ITEM: TIMESTEP
946500
ITEM: NUMBER OF CELLS
5000
ITEM: BOX BOUNDS ss ss pp
-1 1
-0.5 0.5
-0.5 0.5
ITEM: CELLS xc yc f_U[*] f_V[*] f_Tau[1] f_Tau[2] f_Tau[3] f_Press[*] f_Mrho[*] f_Ttra[*] 
-0.99 -0.49 -0.203661 0.310497 0.00898753 0.00874736 -3.12125e-05 0.00887682 1.56606e-07 272.195 
-0.97 -0.49 -0.604838 0.0808967 0.00898533 0.00875308 -3.14329e-05 0.00887874 1.56614e-07 272.24 
-0.95 -0.49 -0.727372 0.0411835 0.00898827 0.00874312 -3.40893e-05 0.0088731 1.56615e-07 272.065 
-0.93 -0.49 -0.907817 0.160953 0.00900083 0.00875554 -2.26465e-05 0.00888584 1.5682e-07 272.098 
-0.91 -0.49 -1.17338 0.0221591 0.00900886 0.00873282 -2.12166e-05 0.00887156 1.56711e-07 271.851 
-0.99 -0.47 -0.211074 0.635536 0.00901396 0.00877047 -1.65123e-05 0.00890091 1.56963e-07 272.313 
-0.89 -0.49 -1.5742 0.280036 0.00902678 0.00874428 -2.54399e-05 0.00888719 1.56792e-07 272.19 
-0.97 -0.47 -0.437482 0.413103 0.00901135 0.008752 -3.58398e-05 0.00889379 1.56728e-07 272.503 
-0.87 -0.49 -1.75987 -0.0134709 0.00904546 0.00877074 -1.4959e-05 0.00890741 1.57131e-07 272.22 
-0.95 -0.47 -0.797371 0.320284 0.00902355 0.00874824 -3.48201e-05 0.00889686 1.56841e-07 272.4 
-0.85 -0.49 -1.9313 0.20303 0.00904803 0.00875108 -4.68944e-06 0.00889664 1.5681e-07 272.447 
-0.93 -0.47 -1.03725 0.241377 0.00902557 0.00874703 -3.83451e-05 0.00889092 1.56794e-07 272.299 
-0.83 -0.49 -1.96645 -0.100332 0.00905154 0.00876126 2.81144e-06 0.00891236 1.57158e-07 272.325 
-0.91 -0.47 -1.33883 0.68129 0.00903592 0.00873673 -3.28049e-05 0.0088904 1.56909e-07 272.085 
-0.99 -0.45 -0.0942461 0.917016 0.0090475 0.00877634 -2.84878e-05 0.00892062 1.57301e-07 272.329 
-0.81 -0.49 -2.14771 0.288321 0.00905713 0.0087691 1.21216e-05 0.0089229 1.57373e-07 272.275 
-0.89 -0.47 -1.69318 0.430342 0.00903978 0.00874212 -3.51715e-05 0.00889013 1.56902e-07 272.088 
-0.97 -0.45 -0.341508 0.738139 0.00905597 0.00876401 -3.75471e-05 0.00891694 1.57148e-07 272.481 
-0.79 -0.49 -2.51883 0.0663888 0.00906253 0.00877509 1.67276e-05 0.00892585 1.57386e-07 272.342 
-0.87 -0.47 -1.92611 0.213858 0.00904296 0.00874994 -2.20648e-05 0.00890747 1.57037e-07 272.385 
-0.95 -0.45 -0.664534 0.748687 0.00905277 0.00874718 -4.06425e-05 0.00890685 1.56925e-07 272.56 
-0.77 -0.49 -2.58209 -0.00378233 0.00906888 0.00879695 2.72895e-05 0.00894419 1.57654e-07 272.437 
-0.85 -0.47 -2.08493 0.326282 0.00905145 0.0087497 -9.66913e-06 0.00890975 1.57055e-07 272.423 
-0.93 -0.45 -1.16149 0.456631 0.00906101 0.00874014 -4.48363e-05 0.00890709 1.57156e-07 272.166 
-0.83 -0.47 -2.35005 0.122152 0.00905988 0.0087517 -6.78461e-06 0.00891675 1.57184e-07 272.414 
-0.91 -0.45 -1.34166 0.894576 0.00906055 0.00874303 -3.58367e-05 0.00890111 1.5716e-07 271.977 
-0.99 -0.43 -0.222947 1.18666 0.00907782 0.00877611 -3.85279e-05 0.00894073 1.57755e-07 272.158 
-0.81 -0.47 -2.57206 0.564301 0.00906942 0.00876078 2.81063e-07 0.00892961 1.57452e-07 272.341 
-0.89 -0.45 -1.74594 0.762175 0.00907015 0.00873218 -3.78309e-05 0.00889739 1.57085e-07 271.993 
-0.97 -0.43 -0.472958 1.02844 0.00908572 0.0087721 -3.81559e-05 0.00893941 1.57555e-07 272.463 
-0.79 -0.47 -2.8573 0.338529 0.00908237 0.00876331 1.3025e-05 0.00893965 1.57687e-07 272.243 
-0.87 -0.45 -2.00213 0.587055 0.00907446 0.00873959 -2.38127e-05 0.00891028 1.57073e-07 272.408 
-0.95 -0.43 -0.658962 0.951141 0.00908921 0.00874997 -4.50347e-05 0.00892591 1.57472e-07 272.194 
-0.77 -0.47 -3.1088 0.122636 0.00909623 0.00879248 1.49828e-05 0.00895289 1.57907e-07 272.265 
-0.85 -0.45 -2.33392 0.451698 0.00908308 0.008739 -1.87218e-05 0.00891834 1.57188e-07 272.454 
-0.93 -0.43 -0.893502 0.992323 0.00908803 0.00874015 -3.89972e-05 0.00892033 1.5735e-07 272.235 
-0.75 -0.47 -3.28529 0.354879 0.00910387 0.00880546 1.84667e-05 0.00896026 1.57766e-07 272.732 
-0.83 -0.45 -2.63592 0.436492 0.0090968 0.00875298 -1.35437e-05 0.00893419 1.5762e-07 272.191 
-0.91 -0.43 -1.53948 1.08121 0.00908415 0.00874162 -4.29686e-05 0.00891146 1.57226e-07 272.18 
-0.99 -0.41 -0.21564 1.60987 0.00908695 0.00877178 -5.12334e-05 0.00894058 1.57777e-07 272.116 
-0.81 -0.45 -2.82223 0.851708 0.00909517 0.00874661 -1.01623e-05 0.00893347 1.57549e-07 272.292 
-0.89 -0.43 -1.53488 1.14997 0.00907545 0.00872209 -3.90425e-05 0.00890364 1.57198e-07 271.988 
-0.97 -0.41 -0.399651 1.09229 0.00909815 0.00877272 -4.64828e-05 0.00894285 1.57618e-07 272.458 
-0.79 -0.45 -3.00479 0.620915 0.00910329 0.00875737 6.54567e-07 0.00893915 1.57685e-07 272.23 
-0.87 -0.43 -1.93874 0.808975 0.00908342 0.00873458 -3.7775e-05 0.00891798 1.57287e-07 272.272 
-0.95 -0.41 -0.58357 1.25137 0.0091019 0.00875652 -4.12873e-05 0.00894058 1.57667e-07 272.305 
-0.77 -0.45 -3.45088 0.467228 0.00911418 0.00878662 8.77546e-06 0.0089564 1.57887e-07 272.406 
-0.85 -0.43 -2.14335 0.830447 0.00910039 0.00873657 -2.99664e-05 0.00892531 1.57457e-07 272.202 
-0.93 -0.41 -1.15325 1.50344 0.00909442 0.00872664 -4.24801e-05 0.00892197 1.57466e-07 272.085 
-0.75 -0.45 -3.68146 0.476161 0.00911389 0.00879696 1.63041e-05 0.00896064 1.5803e-07 272.288 
-0.83 -0.43 -2.55619 0.832213 0.00910263 0.00874075 -1.70621e-05 0.00892902 1.57421e-07 272.377 
-0.91 -0.41 -1.27638 1.32121 0.00910159 0.00874092 -3.54206e-05 0.00892943 1.57698e-07 271.912 
-0.99 -0.39 -0.121017 1.84398 0.00908302 0.00877309 -5.31569e-05 0.0089404 1.57849e-07 271.986 
-0.81 -0.43 -3.03546 0.99177 0.00911523 0.0087437 -1.23852e-05 0.00893928 1.57702e-07 272.204 
-0.89 -0.41 -1.66853 1.38533 0.00910377 0.00873602 -4.03427e-05 0.00892547 1.57454e-07 272.212 
-0.97 -0.39 -0.549299 1.32563 0.0090868 0.00876788 -5.0998e-05 0.00893596 1.57748e-07 272.024 
-0.79 -0.43 -3.28486 0.930043 0.00912254 0.00875131 -7.57613e-06 0.00894664 1.57882e-07 272.118 
-0.87 -0.41 -2.01434 1.20754 0.00909936 0.00872445 -4.00442e-05 0.00892465 1.5735e-07 272.367 
-0.95 -0.39 -0.964573 1.60057 0.00908459 0.00874408 -4.60854e-05 0.0089179 1.57352e-07 272.158 
-0.77 -0.43 -3.51815 0.803088 0.00912963 0.00877739 2.68051e-06 0.00896378 1.5816e-07 272.16 
-0.85 -0.41 -2.63076 1.16439 0.00909524 0.00873366 -3.69791e-05 0.00892924 1.57596e-07 272.082 
-0.93 -0.39 -0.795043 1.76112 0.00909801 0.00873263 -3.74776e-05 0.00892332 1.57501e-07 272.066 
-0.83 -0.41 -2.82764 1.19751 0.00911053 0.00873111 -3.27345e-05 0.00892798 1.57544e-07 272.133 
-0.91 -0.39 -1.30655 1.7955 0.00909991 0.0087403 -4.58009e-05 0.00893008 1.57522e-07 272.235 
-0.99 -0.37 0.122157 2.05366 0.00908027 0.00878273 -5.85143e-05 0.00894531 1.58026e-07 271.83 
-0.81 -0.41 -2.99157 1.33729 0.00912111 0.00873105 -1.99472e-05 0.00893122 1.57714e-07 271.939 
-0.89 -0.39 -1.57503 1.57015 0.00910828 0.00873791 -4.42304e-05 0.00893544 1.57574e-07 272.308 
-0.97 -0.37 -0.329467 1.918 0.00909026 0.00875505 -5.953e-05 0.00893749 1.57727e-07 272.107 
-0.79 -0.41 -3.3437 1.10127 0.00913628 0.00875289 -1.49854e-05 0.00895748 1.58088e-07 272.092 
-0.87 -0.39 -1.87314 1.66247 0.00911639 0.00871712 -4.24667e-05 0.00892971 1.57547e-07 272.181 
-0.95 -0.37 -0.726845 1.71839 0.00910794 0.00874389 -5.22503e-05 0.00893402 1.57742e-07 271.975 
-0.77 -0.41 -3.72594 1.162 0.00914255 0.00876885 -1.70221e-05 0.00896965 1.58307e-07 272.087 
-0.85 -0.39 -2.2235 1.64333 0.00912811 0.00873863 -4.05399e-05 0.00894281 1.57964e-07 271.86 
-0.93 -0.37 -1.25379 1.95969 0.00911624 0.00873062 -5.30242e-05 0.00893487 1.57675e-07 272.117 
-0.75 -0.41 -3.92406 1.04253 0.00916033 0.00879222 -7.06514e-06 0.00898847 1.58524e-07 272.283 
-0.83 -0.39 -2.63234 1.40778 0.00912361 0.00872167 -4.22683e-05 0.00892945 1.57677e-07 271.948 
-0.91 -0.37 -1.40376 2.0397 0.00913479 0.00874052 -5.58662e-05 0.00894748 1.57699e-07 272.459 
-0.99 -0.35 -0.24592 2.0937 0.00909898 0.00877542 -7.85443e-05 0.00894952 1.58088e-07 271.851 
-0.81 -0.39 -2.88212 1.46952 0.00912729 0.00872553 -3.52421e-05 0.00893581 1.57689e-07 272.121 
-0.89 -0.37 -1.72628 1.95589 0.00913952 0.00873508 -4.70678e-05 0.0089471 1.57876e-07 272.143 
-0.97 -0.35 -0.393757 2.41478 0.00910707 0.00874901 -6.56461e-05 0.00893947 1.57828e-07 271.993 
-0.79 -0.39 -3.24487 1.59485 0.00913885 0.00874364 -2.52085e-05 0.00895582 1.58061e-07 272.089 
-0.87 -0.37 -2.18387 2.11717 0.0091356 0.00871788 -4.78544e-05 0.00893551 1.57578e-07 272.303 
-0.95 -0.35 -0.703423 2.00907 0.00911515 0.00873594 -6.38935e-05 0.0089325 1.57667e-07 272.058 
-0.77 -0.39 -3.72177 1.55083 0.00914767 0.00877446 -1.90654e-05 0.0089779 1.58435e-07 272.116 
-0.85 -0.37 -2.4834 1.94207 0.00913566 0.00873401 -4.8018e-05 0.00894117 1.57828e-07 272.045 
-0.93 -0.35 -1.11664 2.41707 0.00912376 0.00873637 -6.60011e-05 0.00894037 1.57779e-07 272.105 
-0.83 -0.37 -2.85942 1.76203 0.00914176 0.00871695 -3.94849e-05 0.00893308 1.5778e-07 271.881 
-0.91 -0.35 -1.46792 2.3958 0.00911763 0.00873699 -5.40562e-05 0.00893156 1.57598e-07 272.149 
-0.81 -0.37 -3.25315 1.66587 0.00915078 0.00872251 -3.53878e-05 0.00894668 1.57929e-07 272.039 
-0.89 -0.35 -1.83069 2.42761 0.00912177 0.00872623 -5.44087e-05 0.00893059 1.57568e-07 272.171 
-0.79 -0.37 -3.56345 2.05885 0.00915029 0.00873811 -3.37523e-05 0.00896026 1.58284e-07 271.84 
-0.87 -0.35 -2.2421 2.25823 0.00913834 0.00872162 -5.01707e-05 0.0089409 1.57765e-07 272.146 
-0.77 -0.37 -3.84551 2.07922 0.0091594 0.00877278 -2.74691e-05 0.00897506 1.5834e-07 272.193 
-0.85 -0.35 -2.62387 2.43179 0.00914877 0.00872191 -4.94931e-05 0.00893802 1.57882e-07 271.856 
-0.83 -0.35 -3.02732 2.12885 0.00914788 0.00871714 -4.55932e-05 0.0089352 1.57852e-07 271.822 
-0.81 -0.35 -3.42654 2.11186 0.00915172 0.00872233 -4.88466e-05 0.00895066 1.58058e-07 271.938 
-0.79 -0.35 -3.72831 2.28797 0.0091715 0.00873326 -4.2366e-05 0.00896354 1.58339e-07 271.846 
-0.77 -0.35 -3.9141 2.36589 0.00918361 0.00876216 -3.47944e-05 0.0089821 1.58462e-07 272.197 
-0.75 -0.35 -4.19959 2.29264 0.00918874 0.00878066 -2.45957e-05 0.00899608 1.58682e-07 272.243 
-0.75 -0.49 -2.72122 0.181005 0.00908032 0.008803 2.8758e-05 0.00894544 1.57707e-07 272.383 
-0.75 -0.43 -3.77684 0.694027 0.00914216 0.00879453 1.18709e-06 0.00897912 1.58268e-07 272.44 
-0.75 -0.39 -4.46916 1.43778 0.00915019 0.0087823 -2.15783e-05 0.00898149 1.58484e-07 272.14 
-0.75 -0.37 -4.11117 1.89965 0.00915982 0.00877727 -2.15177e-05 0.00897828 1.58356e-07 272.264 
-0.77 -0.33 -3.98876 2.70338 0.00915966 0.00874981 -4.55423e-05 0.00896104 1.58355e-07 271.742 
-0.73 -0.49 -3.02847 0.190567 0.0090854 0.00882144 2.67002e-05 0.008964 1.58075e-07 272.313 
-0.73 -0.47 -3.29228 0.190338 0.00910868 0.00881064 2.75082e-05 0.00897496 1.58194e-07 272.441 
-0.73 -0.45 -3.82356 0.340389 0.00912342 0.00880851 1.41551e-05 0.00897635 1.58331e-07 272.248 
-0.73 -0.43 -4.27365 0.889771 0.00915573 0.00880996 5.00259e-06 0.00899337 1.58514e-07 272.449 
-0.73 -0.41 -4.29909 1.15422 0.00916626 0.00880607 -5.5838e-06 0.0089984 1.58707e-07 272.271 
-0.73 -0.39 -4.53728 1.4945 0.00916204 0.00879848 -7.41333e-06 0.00898902 1.58557e-07 272.244 
-0.73 -0.37 -4.59165 1.73518 0.00916045 0.00878047 -2.25475e-05 0.00898042 1.58429e-07 272.203 
-0.73 -0.35 -4.59125 2.03302 0.00918574 0.00877859 -2.13052e-05 0.00898988 1.58601e-07 272.193 
-0.81 -0.29 -3.34072 3.35454 0.00915647 0.00871313 -6.64161e-05 0.00894108 1.58033e-07 271.689 
-0.89 -0.27 -1.80954 3.91007 0.00912017 0.00870089 -9.01791e-05 0.00892628 1.57566e-07 272.043 
-0.97 -0.25 -0.504094 3.67416 0.00909196 0.00872183 -0.000108934 0.00891712 1.57542e-07 271.806 
-0.83 -0.29 -3.01731 3.51325 0.00914855 0.00872407 -6.9138e-05 0.00894579 1.57883e-07 272.09 
-0.91 -0.27 -1.44073 3.87987 0.00912084 0.00870351 -8.92076e-05 0.00892482 1.57604e-07 271.933 
-0.99 -0.25 -0.20996 3.82391 0.00908822 0.00875598 -0.000115443 0.00893317 1.57835e-07 271.79 
-0.79 -0.29 -3.69458 3.22184 0.00917202 0.00872273 -6.16995e-05 0.00895293 1.58163e-07 271.825 
-0.87 -0.27 -2.35435 4.02921 0.00912425 0.00870646 -7.35147e-05 0.00893457 1.5775e-07 271.978 
-0.95 -0.25 -0.719089 3.79238 0.00910396 0.00872088 -0.000104119 0.00892525 1.57696e-07 271.788 
-0.77 -0.29 -4.01406 3.22833 0.00918577 0.00874421 -4.97859e-05 0.00897355 1.58516e-07 271.845 
-0.85 -0.27 -2.61842 3.76262 0.00914009 0.00871328 -7.1918e-05 0.00893654 1.57791e-07 271.968 
-0.93 -0.25 -1.20299 4.0575 0.00910237 0.00870331 -0.000108011 0.00891726 1.5751e-07 271.865 
-0.75 -0.29 -4.50286 3.18169 0.0091866 0.00876515 -5.57099e-05 0.00898951 1.58665e-07 272.072 
-0.83 -0.27 -3.07206 3.7353 0.00915437 0.00872796 -7.17153e-05 0.00895258 1.58094e-07 271.934 
-0.91 -0.25 -1.61736 4.28648 0.00911483 0.00869667 -9.80471e-05 0.0089188 1.57552e-07 271.84 
-0.99 -0.23 -0.014752 4.06564 0.00906339 0.00874305 -0.00012858 0.00891719 1.57531e-07 271.826 
-0.81 -0.27 -3.56187 3.76251 0.00916136 0.0087133 -8.04682e-05 0.00894996 1.58061e-07 271.911 
-0.89 -0.25 -2.14757 4.22542 0.00912768 0.00869284 -8.78173e-05 0.00892879 1.57584e-07 272.089 
-0.97 -0.23 -0.335771 3.96586 0.00908252 0.0087287 -0.000120345 0.0089195 1.57665e-07 271.667 
-0.79 -0.27 -4.06512 3.65152 0.00916968 0.00871082 -7.15161e-05 0.00894522 1.58198e-07 271.532 
-0.87 -0.25 -2.23202 4.31802 0.00914169 0.00870388 -8.75347e-05 0.0089416 1.5796e-07 271.831 
-0.95 -0.23 -0.906634 4.20828 0.00908999 0.00870925 -0.000119605 0.00891186 1.5745e-07 271.804 
-0.77 -0.27 -4.34574 3.6001 0.00917452 0.00873904 -6.12245e-05 0.00897006 1.58474e-07 271.811 
-0.85 -0.25 -2.64475 4.15993 0.00915331 0.00871424 -8.97853e-05 0.00894301 1.5788e-07 272.012 
-0.93 -0.23 -1.1256 4.45324 0.00910857 0.00870304 -0.000112097 0.00891967 1.57498e-07 271.96 
-0.83 -0.25 -3.10247 4.15505 0.00916054 0.00871393 -8.42458e-05 0.00893888 1.5813e-07 271.455 
-0.91 -0.23 -1.46636 4.64217 0.0091146 0.00868545 -0.000106276 0.00892271 1.57517e-07 272.02 
-0.99 -0.21 -0.0326008 4.17639 0.00909791 0.00873938 -0.00013183 0.00893045 1.57908e-07 271.581 
-0.81 -0.25 -3.28862 4.26722 0.00916031 0.00872554 -7.48455e-05 0.00895226 1.58254e-07 271.649 
-0.89 -0.23 -1.93913 4.79786 0.00912658 0.00868616 -0.000101283 0.00892148 1.5757e-07 271.89 
-0.97 -0.21 -0.215623 4.37254 0.00910127 0.00870945 -0.000128413 0.00891602 1.57642e-07 271.6 
-0.79 -0.25 -3.80571 4.22342 0.00914891 0.00869928 -7.6507e-05 0.00893438 1.58033e-07 271.485 
-0.87 -0.23 -2.4357 4.49852 0.00913955 0.00870558 -0.000102125 0.00893227 1.5779e-07 271.839 
-0.95 -0.21 -0.517516 4.61266 0.0091075 0.00871383 -0.000124124 0.00892381 1.57508e-07 272.068 
-0.77 -0.25 -4.35825 3.7714 0.00916069 0.00873391 -7.97387e-05 0.00895548 1.58257e-07 271.741 
-0.85 -0.23 -2.7724 4.71853 0.00914055 0.00870866 -8.90517e-05 0.00892903 1.57782e-07 271.755 
-0.93 -0.21 -1.18009 4.77172 0.0091067 0.00869201 -0.000122802 0.00891329 1.57602e-07 271.586 
-0.83 -0.23 -3.12126 4.40644 0.00913141 0.00870546 -8.19755e-05 0.00892583 1.57807e-07 271.615 
-0.91 -0.21 -1.45783 4.88319 0.00911494 0.00868106 -0.000114491 0.00891687 1.57578e-07 271.735 
-0.99 -0.19 -0.180181 4.34924 0.0090722 0.00872731 -0.000144776 0.00891572 1.57525e-07 271.792 
-0.81 -0.23 -3.52863 4.45271 0.0091449 0.00871513 -8.27765e-05 0.00894112 1.57976e-07 271.789 
-0.89 -0.21 -1.74901 5.30759 0.00912767 0.00869181 -0.000112523 0.008933 1.5775e-07 271.93 
-0.97 -0.19 -0.615638 4.76371 0.00908578 0.00870669 -0.000137131 0.00890513 1.57528e-07 271.465 
-0.79 -0.23 -3.67302 4.71592 0.00916523 0.00871042 -8.05242e-05 0.00894941 1.5818e-07 271.69 
-0.87 -0.21 -2.17032 4.97616 0.00912928 0.00868569 -0.000108966 0.00892314 1.57811e-07 271.525 
-0.95 -0.19 -0.889298 4.94776 0.00910274 0.00871358 -0.000130357 0.00891577 1.57546e-07 271.758 
-0.77 -0.23 -4.09086 4.33707 0.00916873 0.00873492 -8.94342e-05 0.00896408 1.58417e-07 271.728 
-0.85 -0.21 -2.76675 5.12363 0.00914121 0.00869858 -9.22823e-05 0.00893261 1.57774e-07 271.878 
-0.93 -0.19 -0.95445 5.25719 0.00911063 0.00868934 -0.000124087 0.00891885 1.57647e-07 271.678 
-0.75 -0.23 -4.5409 3.99069 0.00917664 0.0087505 -8.71813e-05 0.00897517 1.58443e-07 272.019 
-0.83 -0.21 -3.21492 4.70438 0.00916243 0.00871207 -9.12142e-05 0.00894791 1.5799e-07 271.972 
-0.91 -0.19 -1.52225 5.28473 0.00911136 0.00867131 -0.000125417 0.00890557 1.57421e-07 271.662 
-0.81 -0.21 -3.49286 4.80219 0.00915763 0.00871044 -8.20331e-05 0.00895005 1.58281e-07 271.535 
-0.89 -0.19 -1.97745 5.68126 0.00911807 0.00868339 -0.000114335 0.00891564 1.57497e-07 271.839 
-0.79 -0.21 -3.88031 5.06098 0.00914947 0.00871279 -9.34671e-05 0.00894845 1.58181e-07 271.659 
-0.87 -0.19 -2.47131 5.39179 0.00911945 0.00868544 -0.000104547 0.00891703 1.57625e-07 271.66 
-0.77 -0.21 -4.23096 4.78534 0.00916329 0.00874037 -9.35614e-05 0.00896169 1.58364e-07 271.746 
-0.85 -0.19 -2.6057 5.473 0.00912395 0.00868742 -0.000111579 0.00892155 1.57756e-07 271.571 
-0.75 -0.21 -4.65483 4.40336 0.00916705 0.00874254 -9.57476e-05 0.00896906 1.58433e-07 271.851 
-0.83 -0.19 -2.92272 5.17318 0.00912126 0.00870193 -0.000101319 0.00892754 1.57784e-07 271.706 
-0.81 -0.19 -3.34934 5.22222 0.00914541 0.0087013 -9.60721e-05 0.00893382 1.57976e-07 271.566 
-0.79 -0.19 -3.86696 5.23988 0.00916641 0.00873336 -9.34678e-05 0.00896648 1.58376e-07 271.871 
-0.77 -0.19 -4.06939 5.2739 0.00916932 0.0087365 -0.000104795 0.00896665 1.58468e-07 271.719 
-0.99 -0.33 -0.135387 2.44857 0.00909845 0.00876888 -8.29211e-05 0.00894547 1.57933e-07 271.995 
-0.97 -0.33 -0.39896 2.45691 0.00911373 0.00874855 -8.30669e-05 0.00894265 1.57883e-07 271.996 
-0.91 -0.33 -1.5468 2.81606 0.00914817 0.0087334 -6.43987e-05 0.00894291 1.57837e-07 272.082 
-0.99 -0.31 -0.107395 2.74161 0.00908399 0.00875871 -9.31205e-05 0.00893142 1.5773e-07 271.917 
-0.97 -0.31 -0.330781 2.74398 0.00909346 0.00874423 -8.66669e-05 0.00892965 1.57852e-07 271.653 
-0.87 -0.33 -2.17859 2.7392 0.00914866 0.00872652 -6.14669e-05 0.00894604 1.57915e-07 272.043 
-0.95 -0.31 -0.945202 3.13849 0.00910448 0.00872258 -8.55312e-05 0.00892362 1.57568e-07 271.958 
-0.85 -0.33 -2.32449 2.6254 0.00914627 0.00871248 -5.37064e-05 0.00893917 1.57707e-07 272.193 
-0.93 -0.31 -1.25231 3.09642 0.00912447 0.00873029 -8.64437e-05 0.0089401 1.57852e-07 271.971 
-0.91 -0.31 -1.48605 2.98722 0.00913736 0.00871645 -7.21086e-05 0.00894167 1.57696e-07 272.288 
-0.99 -0.29 -0.179903 3.00593 0.00908228 0.00875845 -0.0001014 0.00893495 1.57765e-07 271.965 
-0.81 -0.33 -3.42902 2.50762 0.00916111 0.00872289 -4.7616e-05 0.00895762 1.58194e-07 271.914 
-0.89 -0.31 -1.73172 3.10251 0.00914316 0.00871712 -5.79952e-05 0.00894192 1.5784e-07 272.046 
-0.97 -0.29 -0.608218 3.17198 0.00909224 0.00873531 -9.92828e-05 0.0089243 1.57593e-07 271.936 
-0.87 -0.31 -2.15965 3.06708 0.00914908 0.00872935 -6.15273e-05 0.00894527 1.57991e-07 271.889 
-0.95 -0.29 -0.72124 3.39738 0.00910314 0.00872062 -9.67799e-05 0.00892538 1.57499e-07 272.131 
-0.85 -0.31 -2.64854 2.85296 0.00915005 0.00870464 -5.80695e-05 0.00893888 1.57842e-07 271.951 
-0.93 -0.29 -1.01947 3.19888 0.00910398 0.00872475 -9.11623e-05 0.00892221 1.57465e-07 272.094 
-0.83 -0.31 -2.82929 3.22736 0.00915322 0.00872239 -5.23762e-05 0.00895217 1.57976e-07 272.125 
-0.91 -0.29 -1.21209 3.50607 0.00909923 0.0087006 -8.10364e-05 0.00890898 1.57336e-07 271.912 
-0.99 -0.27 -0.153616 3.3884 0.00908981 0.00875779 -0.00011007 0.00894109 1.57976e-07 271.788 
-0.81 -0.31 -3.26974 3.00187 0.00915963 0.00871635 -5.8036e-05 0.0089558 1.58095e-07 272.03 
-0.89 -0.29 -1.67348 3.47993 0.00911716 0.00871146 -7.75493e-05 0.00892455 1.576e-07 271.932 
-0.97 -0.27 -0.528045 3.46903 0.00909107 0.00872949 -0.000105412 0.0089271 1.57605e-07 272.002 
-0.79 -0.31 -3.72794 2.77423 0.00916526 0.00872972 -5.10934e-05 0.00895884 1.58269e-07 271.823 
-0.87 -0.29 -2.14012 3.52753 0.00913201 0.00871945 -5.91369e-05 0.00893611 1.57828e-07 271.891 
-0.95 -0.27 -0.713581 3.54319 0.00909492 0.00871787 -0.00010245 0.00892028 1.57437e-07 272.084 
-0.77 -0.31 -4.13124 2.96944 0.00916793 0.00874384 -4.95195e-05 0.00895783 1.58343e-07 271.665 
-0.85 -0.29 -2.736 3.34229 0.0091414 0.00870725 -6.04568e-05 0.00893283 1.57846e-07 271.761 
-0.93 -0.27 -0.971578 3.55476 0.00910528 0.00871039 -9.20943e-05 0.00891673 1.57284e-07 272.241 
-0.95 -0.33 -0.665161 2.57039 0.00911969 0.00872448 -7.20417e-05 0.00893238 1.5773e-07 271.947 
-0.93 -0.33 -1.09151 2.7337 0.0091307 0.00873217 -6.3818e-05 0.0089377 1.57776e-07 272.029 
-0.89 -0.33 -2.00703 2.73756 0.00915102 0.00872088 -5.49686e-05 0.00894084 1.57799e-07 272.085 
-0.83 -0.33 -2.87295 2.7376 0.00915323 0.00871579 -5.25289e-05 0.00895063 1.57964e-07 272.099 
-0.75 -0.31 -4.3514 2.83002 0.009176 0.00876159 -4.55293e-05 0.00898377 1.58505e-07 272.174 
-0.75 -0.27 -4.49412 3.58765 0.00919654 0.00876499 -6.32971e-05 0.00899086 1.58742e-07 271.982 
-0.75 -0.25 -4.69183 3.74635 0.00917045 0.00876166 -7.07576e-05 0.00897276 1.58503e-07 271.844 
-0.75 -0.19 -4.45565 4.79011 0.00916934 0.00873985 -9.77771e-05 0.00896705 1.58565e-07 271.563 
-0.79 -0.33 -3.70652 2.36572 0.00915455 0.00873385 -5.09864e-05 0.00895732 1.58253e-07 271.805 
-0.75 -0.33 -4.39642 2.53828 0.00917018 0.00876845 -3.20399e-05 0.00897896 1.58562e-07 271.93 
-0.81 -0.17 -3.65027 5.69958 0.00912886 0.00869196 -0.000110043 0.00891974 1.57725e-07 271.57 
-0.79 -0.17 -3.92036 5.72244 0.00914309 0.00873928 -0.000112046 0.00895582 1.58227e-07 271.804 
-0.75 -0.17 -4.42265 5.40101 0.00916561 0.00873914 -0.000104116 0.00896238 1.58334e-07 271.819 
-0.73 -0.31 -4.87467 2.85567 0.00919493 0.00877762 -4.76148e-05 0.00899606 1.5879e-07 272.056 
-0.73 -0.29 -4.69427 3.20477 0.0091872 0.00876927 -5.42983e-05 0.00898978 1.58781e-07 271.883 
-0.73 -0.27 -5.00042 3.43616 0.00920511 0.00877798 -6.61864e-05 0.00900138 1.58926e-07 271.984 
-0.73 -0.25 -4.69383 3.84106 0.00917974 0.00877118 -6.63311e-05 0.00898343 1.58772e-07 271.705 
-0.73 -0.23 -4.92854 4.09035 0.00918565 0.00877175 -7.53548e-05 0.00898715 1.58781e-07 271.802 
-0.73 -0.21 -4.95515 4.31866 0.00918315 0.00876924 -9.48505e-05 0.00898307 1.58606e-07 271.979 
-0.73 -0.19 -4.86164 4.76674 0.00916783 0.00877452 -0.000100039 0.00897694 1.5862e-07 271.769 
-0.79 -0.05 -3.21501 7.58987 0.00905381 0.00871031 -0.000155001 0.00889664 1.57465e-07 271.314 
-0.87 -0.03 -2.17273 8.32463 0.00900114 0.00862196 -0.000179603 0.00883329 1.56355e-07 271.294 
-0.83 -0.05 -2.68297 8.00567 0.00903417 0.0086729 -0.00015293 0.00887535 1.57003e-07 271.462 
-0.91 -0.03 -1.68327 8.1764 0.00899242 0.00862191 -0.000191509 0.00883039 1.56205e-07 271.466 
-0.81 -0.05 -2.85549 7.67467 0.00904922 0.00869813 -0.000142313 0.00889288 1.57394e-07 271.321 
-0.89 -0.03 -1.8074 8.39664 0.00899332 0.00862268 -0.000179693 0.00882937 1.56262e-07 271.336 
-0.77 -0.05 -3.61381 7.26937 0.00906667 0.00873371 -0.000153088 0.00891788 1.5766e-07 271.625 
-0.85 -0.03 -2.46803 8.22443 0.00900465 0.00864495 -0.000175941 0.00884945 1.56567e-07 271.423 
-0.75 -0.05 -3.8671 7.05833 0.00907399 0.00875408 -0.000161157 0.00892199 1.57707e-07 271.67 
-0.83 -0.03 -2.65621 8.36167 0.00902107 0.00866515 -0.000164172 0.00886453 1.56923e-07 271.269 
-0.81 -0.03 -3.10395 7.89122 0.00903027 0.00869394 -0.000158568 0.00887686 1.57114e-07 271.315 
-0.79 -0.03 -3.14747 8.05877 0.00904519 0.00871549 -0.000155922 0.00889473 1.57472e-07 271.244 
-0.77 -0.03 -3.51919 7.54151 0.00905359 0.00873898 -0.00016353 0.00890834 1.57598e-07 271.442 
-0.95 -0.17 -0.820335 5.09513 0.00907741 0.00869755 -0.000144913 0.00889713 1.57335e-07 271.553 
-0.99 -0.15 -0.178686 4.94554 0.00903121 0.00870674 -0.000177977 0.00888961 1.57187e-07 271.579 
-0.89 -0.17 -2.03667 5.8967 0.00910398 0.00866683 -0.000120654 0.00890291 1.57312e-07 271.769 
-0.97 -0.15 -0.387957 5.50062 0.00905236 0.00870582 -0.000164867 0.00889082 1.57252e-07 271.504 
-0.95 -0.15 -0.964492 5.66693 0.00906399 0.00867944 -0.000156199 0.00888146 1.57084e-07 271.508 
-0.93 -0.15 -1.2817 5.91727 0.00907415 0.00866994 -0.000139117 0.008887 1.57257e-07 271.379 
-0.83 -0.17 -3.11913 5.59871 0.00912836 0.00870832 -0.000104525 0.008932 1.57826e-07 271.769 
-0.91 -0.15 -1.46808 6.26127 0.00908966 0.0086703 -0.000134874 0.00889677 1.57296e-07 271.61 
-0.99 -0.13 -0.250351 5.31313 0.00904507 0.00870842 -0.000191676 0.00888961 1.57227e-07 271.511 
-0.89 -0.15 -1.68424 6.2663 0.00908963 0.00865696 -0.000128932 0.00889001 1.57251e-07 271.482 
-0.97 -0.13 -0.543877 5.94618 0.00905507 0.00868401 -0.000173683 0.00888394 1.57183e-07 271.413 
-0.87 -0.15 -2.4155 6.06708 0.00909438 0.00868297 -0.000123088 0.00890984 1.57396e-07 271.836 
-0.95 -0.13 -0.907097 6.00112 0.00906501 0.00866822 -0.000166082 0.00888058 1.572e-07 271.281 
-0.77 -0.17 -4.17647 5.22703 0.00915924 0.00873208 -0.000107687 0.00896126 1.58348e-07 271.76 
-0.85 -0.15 -2.69432 6.25753 0.00910445 0.00867953 -0.000113509 0.00890688 1.57517e-07 271.538 
-0.93 -0.13 -1.13406 6.11766 0.00907479 0.00866479 -0.000156011 0.00888565 1.57098e-07 271.612 
-0.83 -0.15 -3.03278 5.9891 0.0091228 0.00870282 -0.000120404 0.00892645 1.57815e-07 271.62 
-0.91 -0.13 -1.66965 6.58551 0.00907546 0.00865568 -0.000146181 0.00888885 1.5727e-07 271.413 
-0.99 -0.11 -0.0739593 5.63305 0.00903878 0.00869574 -0.000188036 0.00888043 1.56944e-07 271.718 
-0.81 -0.15 -3.32629 6.16254 0.00913209 0.00870555 -0.000119277 0.00893321 1.578e-07 271.851 
-0.89 -0.13 -1.97585 6.61555 0.0090879 0.00865878 -0.000135007 0.0088902 1.57366e-07 271.287 
-0.97 -0.11 -0.510387 6.27636 0.00903064 0.0086697 -0.000185972 0.00887104 1.56882e-07 271.539 
-0.79 -0.15 -3.81547 5.85292 0.0091358 0.00872765 -0.000120214 0.00895087 1.58114e-07 271.848 
-0.87 -0.13 -2.31028 6.64011 0.00909819 0.00866713 -0.000130767 0.00890341 1.57491e-07 271.476 
-0.95 -0.11 -0.822608 6.32538 0.00904062 0.00866243 -0.000173176 0.00887018 1.57073e-07 271.183 
-0.77 -0.15 -4.1241 5.62974 0.009137 0.00873192 -0.00011322 0.00895046 1.58312e-07 271.494 
-0.85 -0.13 -2.67798 6.36861 0.00911826 0.00868647 -0.000128939 0.00891379 1.57604e-07 271.598 
-0.93 -0.11 -1.26417 6.59657 0.00905595 0.00865381 -0.000166479 0.0088724 1.57181e-07 271.064 
-0.75 -0.15 -4.47468 5.66909 0.00914264 0.00873594 -0.000110897 0.00895262 1.58375e-07 271.453 
-0.83 -0.13 -2.99605 6.48618 0.00912562 0.00869781 -0.000128378 0.00892558 1.57542e-07 272.063 
-0.91 -0.11 -1.5125 6.9225 0.00906259 0.00864438 -0.000155245 0.00887311 1.57124e-07 271.184 
-0.99 -0.09 -0.115963 5.88692 0.00899627 0.00868357 -0.000203783 0.00885501 1.56653e-07 271.444 
-0.81 -0.13 -3.51517 6.43012 0.00911861 0.00870379 -0.000120603 0.00892635 1.57944e-07 271.395 
-0.89 -0.11 -1.82823 6.95721 0.00908119 0.00865535 -0.000147676 0.00888449 1.57452e-07 270.966 
-0.97 -0.09 -0.397984 6.77134 0.00902201 0.0086606 -0.000189579 0.00886504 1.56894e-07 271.334 
-0.79 -0.13 -3.6519 6.355 0.0091239 0.00872126 -0.000123113 0.00893909 1.57948e-07 271.775 
-0.87 -0.11 -2.22516 7.04011 0.00909392 0.00866087 -0.000148663 0.00889829 1.57501e-07 271.302 
-0.95 -0.09 -0.830997 6.69388 0.00903389 0.00866031 -0.000181379 0.00887119 1.56955e-07 271.416 
-0.77 -0.13 -4.09715 5.9962 0.00912728 0.00872806 -0.000115578 0.00894083 1.58078e-07 271.604 
-0.85 -0.11 -2.60604 6.7607 0.00909684 0.00868296 -0.000136191 0.00890339 1.57604e-07 271.28 
-0.93 -0.09 -1.17949 6.79514 0.00903896 0.00864183 -0.000179013 0.00886127 1.5708e-07 270.898 
-0.83 -0.11 -3.02299 7.02873 0.00909465 0.00868481 -0.000126907 0.00890695 1.57517e-07 271.538 
-0.91 -0.09 -1.38512 7.3178 0.00904486 0.00863465 -0.000162693 0.00886342 1.56983e-07 271.13 
-0.99 -0.07 -0.302552 6.24082 0.00900174 0.00867571 -0.000208883 0.0088551 1.56573e-07 271.586 
-0.81 -0.11 -3.38114 6.5732 0.00911168 0.00871004 -0.000126836 0.00892369 1.5762e-07 271.871 
-0.89 -0.09 -1.86314 7.2886 0.00905104 0.00865109 -0.000163195 0.00887186 1.57139e-07 271.119 
-0.97 -0.07 -0.441115 6.90798 0.00899152 0.00864716 -0.000206596 0.00884044 1.56465e-07 271.324 
-0.79 -0.11 -3.53662 6.69368 0.00911685 0.00871451 -0.00012794 0.00893391 1.58026e-07 271.483 
-0.87 -0.09 -2.09249 7.39269 0.00906459 0.00865293 -0.000157319 0.008883 1.57383e-07 271.039 
-0.95 -0.07 -0.643754 7.07832 0.00899638 0.00865394 -0.000190495 0.00884577 1.56465e-07 271.487 
-0.77 -0.11 -3.98921 6.22242 0.00912717 0.00872245 -0.000128648 0.00893933 1.58009e-07 271.677 
-0.85 -0.09 -2.56302 7.21449 0.00907171 0.00866962 -0.000146571 0.00888605 1.57299e-07 271.277 
-0.93 -0.07 -1.09889 7.24091 0.00900426 0.00862772 -0.000181211 0.00884291 1.56682e-07 271.024 
-0.75 -0.11 -4.41995 6.06884 0.00914127 0.00875336 -0.000129541 0.00895523 1.58334e-07 271.602 
-0.83 -0.09 -2.86769 7.2515 0.00908686 0.00868119 -0.000138125 0.00890267 1.57466e-07 271.497 
-0.91 -0.07 -1.56823 7.61836 0.00902375 0.00863049 -0.000177099 0.0088511 1.56697e-07 271.248 
-0.99 -0.05 -0.00790317 6.59126 0.00897837 0.00866445 -0.000217367 0.00883613 1.56337e-07 271.413 
-0.81 -0.09 -3.25556 7.02797 0.00909419 0.00871387 -0.000138825 0.00891776 1.57752e-07 271.462 
-0.89 -0.07 -1.83246 7.58782 0.00903795 0.00864799 -0.000176866 0.00886472 1.56947e-07 271.233 
-0.97 -0.05 -0.553707 7.07426 0.00900207 0.00864536 -0.000208542 0.00884552 1.56569e-07 271.299 
-0.79 -0.09 -3.62867 6.86463 0.00909908 0.00871445 -0.000129905 0.00892384 1.57777e-07 271.606 
-0.87 -0.07 -2.25975 7.86468 0.00903627 0.00863656 -0.000158799 0.00885859 1.56786e-07 271.324 
-0.95 -0.05 -0.744667 7.46522 0.00900593 0.00863697 -0.000196849 0.00884003 1.56393e-07 271.435 
-0.77 -0.09 -3.80442 6.80351 0.00909713 0.00872128 -0.000129077 0.00892909 1.57862e-07 271.619 
-0.85 -0.07 -2.56051 7.52599 0.00904207 0.00865792 -0.000152512 0.00887217 1.56925e-07 271.499 
-0.93 -0.05 -1.18585 7.72922 0.00900316 0.00862287 -0.000184805 0.00883616 1.56439e-07 271.236 
-0.75 -0.09 -4.14598 6.42969 0.00909236 0.00875071 -0.000135558 0.00893731 1.57992e-07 271.646 
-0.83 -0.07 -2.9035 7.67841 0.00904994 0.00868508 -0.0001462 0.00888078 1.5715e-07 271.373 
-0.91 -0.05 -1.44601 7.95268 0.00900426 0.00863003 -0.000186537 0.00883908 1.56517e-07 271.192 
-0.99 -0.03 -0.204216 6.92677 0.00895193 0.00865433 -0.000230219 0.00881831 1.5604e-07 271.382 
-0.81 -0.07 -3.24757 7.52257 0.00905076 0.00870013 -0.000147757 0.00889494 1.57344e-07 271.47 
-0.89 -0.05 -1.80862 8.03966 0.00900501 0.00863157 -0.000177415 0.00884305 1.56621e-07 271.133 