ITEM: TIMESTEP
1036000
ITEM: NUMBER OF CELLS
5000
ITEM: BOX BOUNDS ss ss pp
-1 1
-0.5 0.5
-0.5 0.5
ITEM: CELLS xc yc f_U[*] f_V[*] f_Tau[1] f_Tau[2] f_Tau[3] f_Press[*] f_Mrho[*] f_Ttra[*] 
-0.99 -0.49 -0.196095 0.271114 0.00899622 0.00874826 -2.74853e-05 0.00888581 1.56706e-07 272.296 
-0.97 -0.49 -0.502452 0.0414705 0.00899124 0.0087481 -3.06019e-05 0.00888264 1.5655e-07 272.471 
-0.95 -0.49 -0.641424 0.0426025 0.00898981 0.00874733 -3.12769e-05 0.00887855 1.56616e-07 272.23 
-0.93 -0.49 -0.872674 0.149106 0.00899842 0.00874894 -2.25987e-05 0.00888128 1.56742e-07 272.095 
-0.91 -0.49 -1.16501 0.0884413 0.00900196 0.00872487 -2.04004e-05 0.00886846 1.56476e-07 272.163 
-0.99 -0.47 -0.184327 0.52913 0.00901356 0.0087679 -1.65025e-05 0.00890258 1.56982e-07 272.331 
-0.89 -0.49 -1.51432 0.23775 0.00901596 0.00874003 -2.40282e-05 0.00888144 1.56763e-07 272.063 
-0.97 -0.47 -0.438075 0.321356 0.00901616 0.00874606 -3.28596e-05 0.00889504 1.5679e-07 272.433 
-0.87 -0.49 -1.7028 0.0234929 0.00903391 0.00875786 -1.68732e-05 0.00889787 1.57043e-07 272.081 
-0.95 -0.47 -0.687555 0.302383 0.00902342 0.00875133 -3.15995e-05 0.00889709 1.56876e-07 272.346 
-0.85 -0.49 -1.9364 0.132811 0.00903736 0.0087539 -9.96172e-06 0.00889722 1.56872e-07 272.358 
-0.93 -0.47 -0.939706 0.355303 0.00902449 0.00874208 -3.36811e-05 0.00888942 1.56793e-07 272.255 
-0.83 -0.49 -2.04124 -0.0307004 0.00904658 0.00876591 2.71873e-08 0.0089115 1.57137e-07 272.335 
-0.91 -0.47 -1.23512 0.579609 0.00903818 0.00872935 -3.00764e-05 0.00888919 1.56876e-07 272.104 
-0.99 -0.45 -0.100252 0.90556 0.00904874 0.00876988 -2.78929e-05 0.0089194 1.57226e-07 272.421 
-0.81 -0.49 -2.17366 0.238863 0.00905906 0.00877247 1.18483e-05 0.00892313 1.57379e-07 272.271 
-0.89 -0.47 -1.61484 0.434276 0.00904171 0.00873856 -3.10657e-05 0.00888914 1.56942e-07 271.988 
-0.97 -0.45 -0.422999 0.574299 0.00904766 0.00875828 -3.31896e-05 0.00891558 1.57232e-07 272.295 
-0.79 -0.49 -2.4761 0.0698008 0.00906886 0.00877955 1.0989e-05 0.00893146 1.57493e-07 272.327 
-0.87 -0.47 -1.89127 0.249947 0.00904463 0.00874564 -2.82489e-05 0.00890192 1.57148e-07 272.023 
-0.95 -0.45 -0.783251 0.607026 0.0090488 0.00874624 -3.49484e-05 0.00890751 1.57034e-07 272.391 
-0.77 -0.49 -2.49262 -0.0341449 0.00907008 0.00878984 2.33268e-05 0.00893973 1.57594e-07 272.405 
-0.85 -0.47 -1.94293 0.349168 0.00905585 0.00875003 -1.5664e-05 0.00891256 1.57142e-07 272.358 
-0.93 -0.45 -1.16718 0.559988 0.00905851 0.00874192 -4.0827e-05 0.00890584 1.57112e-07 272.204 
-0.83 -0.47 -2.38047 0.184787 0.00906395 0.00875693 -1.07681e-05 0.00891864 1.57283e-07 272.3 
-0.91 -0.45 -1.30491 0.777292 0.00905536 0.00873205 -3.68991e-05 0.00889469 1.57061e-07 271.953 
-0.99 -0.43 -0.193219 1.1126 0.00905598 0.0087666 -3.4726e-05 0.00892788 1.57594e-07 272.044 
-0.81 -0.47 -2.63529 0.467115 0.00907319 0.00876269 -3.67333e-06 0.00892962 1.57419e-07 272.399 
-0.89 -0.45 -1.63516 0.822061 0.00906899 0.00873133 -3.84967e-05 0.00890063 1.57109e-07 272.05 
-0.97 -0.43 -0.462377 0.935147 0.00907268 0.00876667 -3.75787e-05 0.00893137 1.57528e-07 272.264 
-0.79 -0.47 -2.94326 0.345929 0.00908388 0.0087722 8.36551e-06 0.00894159 1.57644e-07 272.376 
-0.87 -0.45 -2.01721 0.496953 0.00907445 0.00874273 -2.52664e-05 0.00891148 1.57254e-07 272.131 
-0.95 -0.43 -0.764571 0.907929 0.00907981 0.00874914 -4.59359e-05 0.00892095 1.57425e-07 272.125 
-0.77 -0.47 -3.21203 0.0842472 0.00909455 0.00878025 1.15378e-05 0.00894731 1.5786e-07 272.177 
-0.85 -0.45 -2.34262 0.487205 0.00907805 0.0087391 -2.35767e-05 0.00891739 1.57336e-07 272.169 
-0.93 -0.43 -0.984558 0.937209 0.00908244 0.00873988 -3.81629e-05 0.00891589 1.57283e-07 272.216 
-0.75 -0.47 -3.24807 0.331971 0.00910566 0.00879432 1.77175e-05 0.00895429 1.57784e-07 272.52 
-0.83 -0.45 -2.54665 0.593407 0.00908825 0.0087571 -2.18614e-05 0.00893006 1.57565e-07 272.16 
-0.91 -0.43 -1.5105 1.02262 0.00908851 0.00873598 -4.23643e-05 0.00891509 1.57298e-07 272.165 
-0.99 -0.41 -0.141787 1.41175 0.00907955 0.00876932 -4.81838e-05 0.00893695 1.57725e-07 272.095 
-0.81 -0.45 -2.88448 0.804098 0.00909135 0.00874511 -1.27772e-05 0.00892786 1.575e-07 272.206 
-0.89 -0.43 -1.67513 1.12086 0.00908245 0.00872611 -4.19249e-05 0.00890981 1.57282e-07 272.032 
-0.97 -0.41 -0.342399 1.15241 0.00908728 0.00876595 -5.08049e-05 0.00893397 1.5759e-07 272.237 
-0.79 -0.45 -3.01654 0.512586 0.00910154 0.00876448 2.60694e-07 0.00894245 1.57746e-07 272.225 
-0.87 -0.43 -1.93647 0.831173 0.00908727 0.00873014 -3.88424e-05 0.0089168 1.57337e-07 272.15 
-0.95 -0.41 -0.607222 1.2563 0.0090958 0.00875548 -4.66674e-05 0.00893697 1.57613e-07 272.289 
-0.77 -0.45 -3.40504 0.405791 0.00911147 0.00877733 5.32049e-06 0.00895175 1.57805e-07 272.407 
-0.85 -0.43 -2.32805 0.876993 0.00910606 0.00874093 -3.2151e-05 0.00893103 1.57634e-07 272.07 
-0.93 -0.41 -1.23998 1.40932 0.00909693 0.00872902 -4.60816e-05 0.00892456 1.57485e-07 272.131 
-0.75 -0.45 -3.69775 0.496821 0.00911292 0.0087853 9.39321e-06 0.00895514 1.57947e-07 272.264 
-0.83 -0.43 -2.69556 0.844602 0.00910852 0.00874996 -2.12068e-05 0.00893602 1.57604e-07 272.275 
-0.91 -0.41 -1.41777 1.33631 0.00910265 0.00873665 -4.17734e-05 0.00892827 1.57606e-07 272.034 
-0.99 -0.39 -0.16004 1.6935 0.00908473 0.0087759 -5.33642e-05 0.00893929 1.5785e-07 271.949 
-0.81 -0.43 -3.03444 1.00164 0.0091139 0.00873683 -1.84795e-05 0.00893613 1.57654e-07 272.191 
-0.89 -0.41 -1.71989 1.34789 0.00910319 0.00872978 -4.48626e-05 0.00892492 1.5742e-07 272.254 
-0.97 -0.39 -0.550592 1.39648 0.00909873 0.0087697 -5.64804e-05 0.00894043 1.57763e-07 272.134 
-0.79 -0.43 -3.38882 0.832491 0.00912123 0.00875623 -1.00064e-05 0.00895168 1.57942e-07 272.169 
-0.87 -0.41 -2.12132 1.24403 0.00910847 0.00872739 -4.03286e-05 0.00893245 1.57492e-07 272.36 
-0.95 -0.39 -0.908291 1.62048 0.00909813 0.00874623 -5.31341e-05 0.00892879 1.57474e-07 272.28 
-0.77 -0.43 -3.66495 0.773617 0.00912618 0.00877171 -2.69738e-07 0.00895846 1.58056e-07 272.177 
-0.85 -0.41 -2.65742 1.16811 0.00910402 0.00873398 -3.94176e-05 0.0089305 1.57644e-07 272.037 
-0.93 -0.39 -0.865679 1.64556 0.00910642 0.00873132 -4.65516e-05 0.00892817 1.57533e-07 272.158 
-0.83 -0.41 -2.794 1.226 0.00911497 0.00873836 -3.15557e-05 0.00893099 1.57624e-07 272.086 
-0.91 -0.39 -1.30522 1.78701 0.00911096 0.00873463 -4.84546e-05 0.008934 1.57643e-07 272.146 
-0.99 -0.37 0.0270565 1.98275 0.00909389 0.00878774 -6.41505e-05 0.00894938 1.58022e-07 271.96 
-0.81 -0.41 -3.06043 1.3039 0.00911944 0.00873181 -2.17742e-05 0.00893374 1.57757e-07 271.941 
-0.89 -0.39 -1.63681 1.59975 0.00911811 0.00873551 -4.70449e-05 0.00893985 1.57692e-07 272.239 
-0.97 -0.37 -0.4574 1.92092 0.0090976 0.00875928 -6.22724e-05 0.00893828 1.57793e-07 272.017 
-0.79 -0.41 -3.41026 1.09181 0.0091325 0.00874981 -2.06412e-05 0.00895215 1.57989e-07 272.101 
-0.87 -0.39 -1.95183 1.64655 0.00911976 0.00871666 -4.59175e-05 0.00892996 1.57628e-07 272.049 
-0.95 -0.37 -0.858335 1.79528 0.00910548 0.00874249 -5.55435e-05 0.00893337 1.57703e-07 272.023 
-0.77 -0.41 -3.79342 1.14911 0.00914351 0.00877304 -1.46874e-05 0.0089704 1.58292e-07 272.134 
-0.85 -0.39 -2.26365 1.59651 0.00912939 0.00873585 -4.08591e-05 0.00894332 1.57911e-07 271.968 
-0.93 -0.37 -1.23083 1.86977 0.00910962 0.00873245 -5.75053e-05 0.00893293 1.57715e-07 271.99 
-0.75 -0.41 -4.02614 0.975246 0.0091552 0.0087797 -1.2483e-05 0.00897927 1.58383e-07 272.246 
-0.83 -0.39 -2.66776 1.51961 0.00912593 0.00872388 -3.83659e-05 0.00893252 1.57706e-07 271.992 
-0.91 -0.37 -1.41004 1.99962 0.0091216 0.00873084 -5.86217e-05 0.00893643 1.57624e-07 272.253 
-0.99 -0.35 -0.229393 2.16591 0.00910025 0.00878606 -7.56473e-05 0.00895352 1.58263e-07 271.671 
-0.81 -0.39 -2.97779 1.50379 0.00913602 0.00873312 -3.48887e-05 0.00894525 1.57812e-07 272.197 
-0.89 -0.37 -1.69337 1.97318 0.00912748 0.00873004 -5.04361e-05 0.00893823 1.57835e-07 271.943 
-0.97 -0.35 -0.416389 2.40232 0.0091054 0.0087493 -6.67144e-05 0.00894023 1.57865e-07 271.953 
-0.79 -0.39 -3.29649 1.5447 0.00914184 0.00873994 -2.75567e-05 0.00895254 1.58072e-07 271.971 
-0.87 -0.37 -2.13351 2.0959 0.00912973 0.00871755 -4.95854e-05 0.00893571 1.57684e-07 272.126 
-0.95 -0.35 -0.794186 2.09008 0.00911594 0.00873996 -6.43494e-05 0.00893682 1.57785e-07 271.988 
-0.77 -0.39 -3.77454 1.49127 0.00914987 0.00877322 -2.23892e-05 0.00897352 1.58369e-07 272.097 
-0.85 -0.37 -2.54308 1.99194 0.00913354 0.00872806 -5.02566e-05 0.00893951 1.57865e-07 271.931 
-0.93 -0.35 -1.18492 2.23777 0.0091239 0.00873277 -6.44985e-05 0.00893871 1.57822e-07 271.98 
-0.83 -0.37 -2.9852 1.78268 0.00914181 0.00871999 -4.03563e-05 0.00893698 1.57803e-07 271.961 
-0.91 -0.35 -1.51223 2.32299 0.00912124 0.0087306 -5.78138e-05 0.00893251 1.57647e-07 272.093 
-0.81 -0.37 -3.26631 1.80155 0.00914683 0.00872906 -3.58665e-05 0.00895046 1.57976e-07 272.073 
-0.89 -0.35 -1.87989 2.4406 0.00912181 0.00872206 -5.50545e-05 0.00892894 1.57672e-07 271.942 
-0.79 -0.37 -3.6807 1.95931 0.00914847 0.00873766 -3.22106e-05 0.00896095 1.58255e-07 271.911 
-0.87 -0.35 -2.27284 2.32776 0.00913302 0.00872017 -5.70731e-05 0.00893642 1.57735e-07 272.061 
-0.77 -0.37 -3.8912 1.95631 0.00915413 0.00876696 -2.82768e-05 0.00897005 1.58205e-07 272.272 
-0.85 -0.35 -2.63874 2.42232 0.00914097 0.00871897 -5.09309e-05 0.00893869 1.57883e-07 271.874 
-0.83 -0.35 -2.99493 2.14473 0.00914436 0.00871739 -4.75254e-05 0.00893875 1.57959e-07 271.745 
-0.81 -0.35 -3.43565 2.239 0.00915095 0.00872633 -4.72392e-05 0.0089524 1.58027e-07 272.044 
-0.79 -0.35 -3.74611 2.23721 0.00916734 0.00873458 -4.26468e-05 0.00896081 1.58262e-07 271.895 
-0.77 -0.35 -3.95417 2.22429 0.00917832 0.00875628 -3.40389e-05 0.00897753 1.58351e-07 272.248 
-0.75 -0.35 -4.24242 2.25326 0.00918667 0.00877079 -2.90984e-05 0.00898702 1.5861e-07 272.092 
-0.75 -0.49 -2.72302 0.163353 0.00907791 0.00879385 2.68117e-05 0.00893867 1.57567e-07 272.419 
-0.75 -0.43 -3.93546 0.714005 0.00913838 0.00878445 -3.2386e-06 0.00897103 1.58138e-07 272.418 
-0.75 -0.39 -4.39853 1.38058 0.00915031 0.00877409 -1.90292e-05 0.00897458 1.58376e-07 272.116 
-0.75 -0.37 -4.2121 1.83927 0.00915981 0.00877106 -1.70461e-05 0.00897319 1.58381e-07 272.067 
-0.77 -0.33 -3.93046 2.50339 0.00916659 0.00874735 -4.77078e-05 0.00896433 1.58409e-07 271.748 
-0.73 -0.49 -3.00268 0.180526 0.00908606 0.00881289 2.62234e-05 0.00895618 1.57916e-07 272.349 
-0.73 -0.47 -3.33195 0.326218 0.00911089 0.00880382 2.32688e-05 0.00896921 1.58166e-07 272.315 
-0.73 -0.45 -3.89707 0.446583 0.00912778 0.00880444 1.18955e-05 0.00897385 1.58234e-07 272.339 
-0.73 -0.43 -4.30212 0.86646 0.00914657 0.00879993 -2.608e-07 0.00898288 1.58367e-07 272.384 
-0.73 -0.41 -4.4113 1.15974 0.00916356 0.00879669 -7.07575e-06 0.00898865 1.58553e-07 272.238 
-0.73 -0.39 -4.51718 1.43314 0.00915485 0.0087891 -8.73573e-06 0.00897624 1.58455e-07 272.031 
-0.73 -0.37 -4.75274 1.71507 0.00916425 0.00877641 -2.44002e-05 0.00897428 1.58481e-07 271.927 
-0.73 -0.35 -4.53368 1.93068 0.00918833 0.00878093 -2.3949e-05 0.00898912 1.58687e-07 272.024 
-0.81 -0.29 -3.25077 3.38985 0.00916136 0.0087201 -6.53257e-05 0.00894826 1.58088e-07 271.813 
-0.89 -0.27 -1.92345 3.80116 0.0091269 0.00869772 -8.87531e-05 0.00893006 1.57737e-07 271.864 
-0.97 -0.25 -0.506843 3.7296 0.00908869 0.00872392 -0.000112719 0.00891844 1.57696e-07 271.581 
-0.83 -0.29 -2.88623 3.41142 0.00915347 0.00871661 -6.84623e-05 0.00894498 1.57827e-07 272.162 
-0.91 -0.27 -1.48297 3.88347 0.00912734 0.00870797 -9.16671e-05 0.00893267 1.57758e-07 271.906 
-0.99 -0.25 -0.182378 3.77312 0.00908537 0.0087587 -0.000119197 0.00893561 1.58023e-07 271.54 
-0.79 -0.29 -3.55857 3.25916 0.00916847 0.00872403 -6.27576e-05 0.00895198 1.58166e-07 271.791 
-0.87 -0.27 -2.35828 3.94497 0.00913386 0.00870424 -7.67197e-05 0.00893837 1.57859e-07 271.906 
-0.95 -0.25 -0.793361 3.82048 0.00910338 0.00871762 -0.000106659 0.00892602 1.57807e-07 271.621 
-0.77 -0.29 -3.95263 3.31423 0.00918014 0.00873682 -5.70446e-05 0.00896844 1.58371e-07 271.94 
-0.85 -0.27 -2.70596 3.76133 0.00915023 0.00871447 -7.26606e-05 0.00894526 1.57961e-07 271.94 
-0.93 -0.25 -1.12895 4.09069 0.00910774 0.00870594 -0.000106766 0.00892047 1.57617e-07 271.778 
-0.75 -0.29 -4.50871 3.24172 0.00918838 0.00875714 -5.52192e-05 0.00898431 1.5862e-07 271.992 
-0.83 -0.27 -3.11541 3.60903 0.00915862 0.00872041 -7.21678e-05 0.00895237 1.57993e-07 272.102 
-0.91 -0.25 -1.5099 4.22584 0.00911522 0.00869653 -9.9413e-05 0.00892175 1.57639e-07 271.78 
-0.99 -0.23 -0.0739229 4.02498 0.00906685 0.00875053 -0.000128492 0.00892265 1.5775e-07 271.616 
-0.81 -0.27 -3.48889 3.81033 0.00916161 0.00871626 -7.77026e-05 0.00894758 1.58068e-07 271.827 
-0.89 -0.25 -1.86778 4.17377 0.00912659 0.00869556 -8.77046e-05 0.00893095 1.57702e-07 271.952 
-0.97 -0.23 -0.376239 4.09168 0.00908302 0.0087287 -0.000121364 0.00891881 1.57721e-07 271.549 
-0.79 -0.27 -4.00261 3.65402 0.00917342 0.0087187 -6.97301e-05 0.00894913 1.58261e-07 271.543 
-0.87 -0.25 -2.17591 4.30551 0.00913699 0.00870033 -8.98832e-05 0.0089395 1.57953e-07 271.779 
-0.95 -0.23 -0.842304 4.24123 0.00908869 0.00870825 -0.000120887 0.00890931 1.57472e-07 271.688 
-0.77 -0.27 -4.35608 3.71919 0.00917403 0.0087341 -6.31566e-05 0.00896516 1.58447e-07 271.709 
-0.85 -0.25 -2.59329 4.17129 0.00914902 0.0087103 -9.07409e-05 0.00894459 1.57927e-07 271.979 
-0.93 -0.23 -1.20368 4.42773 0.00910347 0.00870182 -0.000113005 0.00891621 1.57496e-07 271.858 
-0.83 -0.25 -3.10022 4.12484 0.00915872 0.00870892 -8.09814e-05 0.0089403 1.5805e-07 271.636 
-0.91 -0.23 -1.52252 4.46683 0.00911112 0.00868623 -0.000102783 0.00891922 1.57524e-07 271.901 
-0.99 -0.21 -0.0228112 4.2119 0.00909026 0.00874545 -0.000134344 0.00892926 1.5784e-07 271.661 
-0.81 -0.25 -3.40837 4.1861 0.00916422 0.00872489 -7.44932e-05 0.00895371 1.58195e-07 271.794 
-0.89 -0.23 -1.91892 4.76113 0.00912052 0.00869601 -0.000104186 0.00892334 1.57596e-07 271.902 
-0.97 -0.21 -0.257518 4.44678 0.00909744 0.00871412 -0.00013147 0.00891554 1.57642e-07 271.585 
-0.79 -0.25 -3.85207 4.21829 0.00915439 0.00870827 -7.70196e-05 0.00894195 1.58154e-07 271.508 
-0.87 -0.23 -2.42073 4.58848 0.00913601 0.00869572 -0.000105067 0.0089283 1.57785e-07 271.728 
-0.95 -0.21 -0.638663 4.65064 0.00910431 0.00871045 -0.000124334 0.0089195 1.5758e-07 271.813 
-0.77 -0.25 -4.26705 3.88366 0.00916552 0.00873355 -7.50517e-05 0.00895496 1.58289e-07 271.67 
-0.85 -0.23 -2.69938 4.64634 0.00913946 0.00870629 -9.37497e-05 0.00893315 1.57844e-07 271.774 
-0.93 -0.21 -1.20023 4.84835 0.00910384 0.00869051 -0.000122584 0.00891191 1.57596e-07 271.555 
-0.83 -0.23 -3.09269 4.58319 0.00913635 0.00869643 -8.60344e-05 0.00892758 1.57814e-07 271.656 
-0.91 -0.21 -1.51283 4.77044 0.00911226 0.00868163 -0.000116038 0.00891483 1.5759e-07 271.653 
-0.99 -0.19 -0.222765 4.45084 0.00907776 0.00873626 -0.000148513 0.00891881 1.57629e-07 271.707 
-0.81 -0.23 -3.56848 4.39854 0.00914455 0.00871789 -7.99322e-05 0.00894471 1.58025e-07 271.813 
-0.89 -0.21 -1.86649 5.23842 0.00912674 0.00870115 -0.000112854 0.00893145 1.57737e-07 271.906 
-0.97 -0.19 -0.560739 4.76445 0.0090865 0.00870446 -0.000135801 0.00890527 1.57421e-07 271.653 
-0.79 -0.23 -3.70538 4.5824 0.00916109 0.00871744 -7.74837e-05 0.00895287 1.582e-07 271.761 
-0.87 -0.21 -2.20273 5.00722 0.00912785 0.00868028 -0.000109126 0.00892018 1.57739e-07 271.56 
-0.95 -0.19 -0.823947 5.04048 0.00909748 0.00870973 -0.0001319 0.00891309 1.57561e-07 271.65 
-0.77 -0.23 -4.04078 4.30044 0.00916322 0.00872901 -8.62893e-05 0.00895354 1.58269e-07 271.663 
-0.85 -0.21 -2.7478 5.01017 0.00913335 0.0086969 -9.55636e-05 0.00892866 1.57794e-07 271.722 
-0.93 -0.19 -0.904577 5.22578 0.00910624 0.0086865 -0.000126189 0.00891276 1.57625e-07 271.53 
-0.75 -0.23 -4.54988 4.04595 0.00917442 0.00874425 -8.36832e-05 0.00896959 1.58478e-07 271.791 
-0.83 -0.21 -3.11301 4.86588 0.00914639 0.00869722 -9.20381e-05 0.00893418 1.57788e-07 271.902 
-0.91 -0.19 -1.36574 5.25811 0.0091082 0.00867793 -0.000124923 0.0089074 1.57451e-07 271.666 
-0.81 -0.21 -3.40069 4.748 0.00915225 0.00871173 -8.7864e-05 0.00894893 1.58143e-07 271.738 
-0.89 -0.19 -1.8742 5.55459 0.0091153 0.00869242 -0.00011756 0.00892033 1.57589e-07 271.822 
-0.79 -0.21 -3.74064 4.86482 0.00915222 0.00871916 -8.89409e-05 0.00894991 1.58253e-07 271.579 
-0.87 -0.19 -2.35198 5.39039 0.009115 0.00867869 -0.000108403 0.00891614 1.57626e-07 271.631 
-0.77 -0.21 -4.13437 4.75181 0.00916469 0.00873329 -9.20733e-05 0.00896033 1.58394e-07 271.654 
-0.85 -0.19 -2.62746 5.4259 0.00912027 0.00868392 -0.000108163 0.00891775 1.57607e-07 271.713 
-0.75 -0.21 -4.59647 4.51954 0.00916723 0.00874088 -9.32676e-05 0.00896598 1.58424e-07 271.774 
-0.83 -0.19 -2.96045 5.21434 0.009123 0.00869876 -0.000104894 0.00892804 1.57764e-07 271.756 
-0.81 -0.19 -3.29796 5.15859 0.00914154 0.00869914 -9.89742e-05 0.00893501 1.57969e-07 271.614 
-0.79 -0.19 -3.81556 5.20374 0.0091592 0.00873253 -9.71172e-05 0.0089634 1.58333e-07 271.852 
-0.77 -0.19 -4.08623 5.20838 0.00916889 0.00873003 -0.000102809 0.00896421 1.58419e-07 271.729 
-0.99 -0.33 -0.100592 2.43185 0.00909765 0.00877832 -8.29849e-05 0.00894773 1.58031e-07 271.895 
-0.97 -0.33 -0.442775 2.60638 0.0091138 0.00874875 -8.00486e-05 0.00894177 1.57887e-07 271.962 
-0.91 -0.33 -1.56997 2.72614 0.00914148 0.0087231 -6.56825e-05 0.00893788 1.57727e-07 272.119 
-0.99 -0.31 -0.203167 2.80139 0.00909015 0.00876824 -9.55841e-05 0.00893933 1.5794e-07 271.795 
-0.97 -0.31 -0.423875 2.82618 0.00909626 0.00874692 -8.90744e-05 0.00893231 1.57933e-07 271.594 
-0.87 -0.33 -2.26232 2.83257 0.00915088 0.00872367 -5.9502e-05 0.00894783 1.57924e-07 272.082 
-0.95 -0.31 -0.804408 3.0351 0.00910592 0.00872517 -8.32622e-05 0.00892769 1.57654e-07 271.934 
-0.85 -0.33 -2.50976 2.69085 0.00914618 0.00871183 -5.53947e-05 0.00894028 1.57728e-07 272.19 
-0.93 -0.31 -1.17842 2.94001 0.00912216 0.00872796 -8.3261e-05 0.0089383 1.57757e-07 272.08 
-0.91 -0.31 -1.4902 2.99285 0.0091341 0.00871621 -6.91334e-05 0.00894227 1.57705e-07 272.291 
-0.99 -0.29 -0.127792 3.09526 0.00908411 0.00876645 -0.000102881 0.00893953 1.57973e-07 271.745 
-0.81 -0.33 -3.45811 2.62278 0.00915757 0.00872706 -5.1086e-05 0.00895247 1.58146e-07 271.841 
-0.89 -0.31 -1.79545 3.11282 0.00913828 0.0087137 -6.46833e-05 0.00894 1.57812e-07 272.038 
-0.97 -0.29 -0.420221 3.12743 0.00909573 0.00873947 -9.71654e-05 0.00892907 1.57717e-07 271.868 
-0.87 -0.31 -2.25949 3.13696 0.00914322 0.00872018 -6.26168e-05 0.0089398 1.57904e-07 271.872 
-0.95 -0.29 -0.753511 3.39563 0.00910524 0.00872065 -9.79786e-05 0.00892661 1.57583e-07 272.025 
-0.85 -0.31 -2.56846 2.93671 0.00914874 0.00870967 -6.08919e-05 0.00894136 1.57929e-07 271.876 
-0.93 -0.29 -1.09119 3.20581 0.00910964 0.00871932 -8.77485e-05 0.00892441 1.57612e-07 271.906 
-0.83 -0.31 -2.82909 3.0796 0.00915523 0.00871894 -5.74039e-05 0.00894898 1.57971e-07 272.036 
-0.91 -0.29 -1.34256 3.45563 0.00911054 0.00870535 -8.1367e-05 0.00891816 1.57512e-07 271.89 
-0.99 -0.27 -0.116052 3.43062 0.00909464 0.00875969 -0.000110227 0.0089419 1.5813e-07 271.547 
-0.81 -0.31 -3.12631 3.05226 0.00915989 0.00871974 -5.80853e-05 0.00895558 1.58049e-07 272.103 
-0.89 -0.29 -1.76034 3.44852 0.0091265 0.00871098 -7.68632e-05 0.00893085 1.57679e-07 271.988 
-0.97 -0.27 -0.514403 3.41385 0.00910138 0.0087376 -0.000106132 0.00893312 1.57791e-07 271.864 
-0.79 -0.31 -3.65849 2.7498 0.00916598 0.00872977 -5.5962e-05 0.00895492 1.58231e-07 271.769 
-0.87 -0.29 -2.08154 3.55594 0.00914079 0.00871425 -6.50757e-05 0.00894058 1.57888e-07 271.924 
-0.95 -0.27 -0.643627 3.65891 0.00910277 0.00871544 -9.88584e-05 0.0089222 1.57561e-07 271.928 
-0.77 -0.31 -4.16778 2.89072 0.00916941 0.00874069 -5.10189e-05 0.00895519 1.58233e-07 271.774 
-0.85 -0.29 -2.59979 3.29435 0.00914532 0.0087092 -6.52786e-05 0.00893569 1.57819e-07 271.894 
-0.93 -0.27 -1.00437 3.58024 0.00911244 0.0087092 -9.40887e-05 0.00891989 1.57406e-07 272.126 
-0.95 -0.33 -0.716604 2.58515 0.00912078 0.00872843 -7.39724e-05 0.00893679 1.57832e-07 271.905 
-0.93 -0.33 -1.10654 2.57915 0.0091318 0.00873454 -6.50945e-05 0.0089425 1.57841e-07 272.063 
-0.89 -0.33 -2.0137 2.69416 0.00915052 0.00871786 -6.08421e-05 0.00894043 1.5777e-07 272.122 
-0.83 -0.33 -2.91866 2.68329 0.0091483 0.00871377 -5.42238e-05 0.0089455 1.57963e-07 271.944 
-0.75 -0.31 -4.48258 2.79148 0.00917294 0.00875379 -4.81034e-05 0.00897439 1.58434e-07 272.011 
-0.75 -0.27 -4.55241 3.72925 0.00918689 0.00875242 -6.62504e-05 0.00898089 1.58681e-07 271.784 
-0.75 -0.25 -4.39677 3.81053 0.00917438 0.00874915 -6.99478e-05 0.00896745 1.58459e-07 271.758 
-0.75 -0.19 -4.44397 4.96457 0.00916945 0.00873794 -9.39959e-05 0.00896628 1.58459e-07 271.722 
-0.79 -0.33 -3.63639 2.39074 0.00915789 0.00873171 -5.16678e-05 0.00895526 1.58237e-07 271.77 
-0.75 -0.33 -4.29856 2.52447 0.00917617 0.00876077 -3.74595e-05 0.00897578 1.58552e-07 271.851 
-0.81 -0.17 -3.54946 5.60031 0.00912523 0.00869237 -0.000112797 0.00892032 1.57763e-07 271.523 
-0.79 -0.17 -3.88538 5.6088 0.00913975 0.0087325 -0.000115081 0.00895335 1.582e-07 271.776 
-0.75 -0.17 -4.47686 5.45392 0.00916283 0.00873667 -0.000106111 0.00896063 1.58276e-07 271.865 
-0.73 -0.31 -4.86601 2.89389 0.00919278 0.00877752 -4.82927e-05 0.00899474 1.58789e-07 272.018 
-0.73 -0.29 -4.81155 3.18056 0.00918513 0.00877097 -5.4396e-05 0.00899109 1.58802e-07 271.886 
-0.73 -0.27 -4.90004 3.31628 0.00919888 0.00877506 -6.46672e-05 0.00899694 1.58858e-07 271.967 
-0.73 -0.25 -4.64409 3.80358 0.00918017 0.00876999 -6.71504e-05 0.00898274 1.58772e-07 271.684 
-0.73 -0.23 -4.87893 4.21093 0.00918653 0.00877077 -7.65559e-05 0.00898796 1.58858e-07 271.696 
-0.73 -0.21 -4.87679 4.41003 0.00917934 0.00876432 -9.34164e-05 0.00898451 1.58676e-07 271.903 
-0.73 -0.19 -4.90612 4.66564 0.00917216 0.00877273 -9.89847e-05 0.0089803 1.58657e-07 271.808 
-0.79 -0.05 -3.33303 7.65368 0.00906203 0.00871897 -0.000152082 0.0089049 1.57466e-07 271.565 
-0.87 -0.03 -2.22107 8.26387 0.00900451 0.00863055 -0.000176112 0.0088355 1.56373e-07 271.332 
-0.83 -0.05 -2.70815 8.00446 0.00904074 0.0086809 -0.000153874 0.00888315 1.57112e-07 271.511 
-0.91 -0.03 -1.57045 8.28822 0.00899446 0.00862479 -0.000187441 0.00883059 1.56228e-07 271.433 
-0.81 -0.05 -2.94629 7.65202 0.00905462 0.00869664 -0.000145661 0.00889628 1.57283e-07 271.618 
-0.89 -0.03 -1.86849 8.31488 0.00899766 0.00862903 -0.000178983 0.00883102 1.56314e-07 271.296 
-0.77 -0.05 -3.67293 7.30689 0.00906988 0.00872304 -0.00015433 0.00891411 1.57575e-07 271.657 
-0.85 -0.03 -2.5034 8.13738 0.00900987 0.00864713 -0.000174903 0.00885014 1.56605e-07 271.378 
-0.75 -0.05 -3.93685 7.0877 0.00907344 0.00874844 -0.000159321 0.00892235 1.57683e-07 271.722 
-0.83 -0.03 -2.70147 8.32871 0.00902728 0.0086698 -0.000163302 0.00886929 1.56925e-07 271.411 
-0.81 -0.03 -3.1011 7.93499 0.00903629 0.00869422 -0.000157982 0.00888197 1.57101e-07 271.493 
-0.79 -0.03 -3.20917 8.03276 0.00904863 0.00872139 -0.000158415 0.00890099 1.5745e-07 271.472 
-0.77 -0.03 -3.64084 7.56191 0.00905695 0.00872612 -0.000159477 0.00890387 1.57477e-07 271.515 
-0.95 -0.17 -0.707518 5.2436 0.00907995 0.00869514 -0.00014214 0.00889887 1.5738e-07 271.529 
-0.99 -0.15 -0.13723 5.00184 0.00903301 0.00870757 -0.000172647 0.00888848 1.57169e-07 271.576 
-0.89 -0.17 -2.02606 5.8243 0.00910287 0.008673 -0.000124173 0.00890545 1.57315e-07 271.841 
-0.97 -0.15 -0.514007 5.43652 0.00905629 0.00870204 -0.000164425 0.00889106 1.57178e-07 271.638 
-0.95 -0.15 -0.871287 5.67746 0.00906608 0.00868105 -0.000152072 0.00888373 1.57126e-07 271.504 
-0.93 -0.15 -1.24384 6.04173 0.00907174 0.00867014 -0.000140108 0.00888415 1.57179e-07 271.426 
-0.83 -0.17 -3.07216 5.61035 0.00912542 0.00870425 -0.000109094 0.00893155 1.57819e-07 271.768 
-0.91 -0.15 -1.49834 6.10919 0.00908609 0.00868161 -0.000137597 0.00890222 1.57386e-07 271.62 
-0.99 -0.13 -0.239904 5.36844 0.00903934 0.00870523 -0.0001881 0.0088864 1.57095e-07 271.64 
-0.89 -0.15 -1.74276 6.14847 0.00908763 0.00865954 -0.000128637 0.00889044 1.5719e-07 271.6 
-0.97 -0.13 -0.536549 5.83557 0.00904615 0.0086834 -0.000173781 0.00888044 1.57112e-07 271.429 
-0.87 -0.15 -2.4122 6.15328 0.00909718 0.00868003 -0.000126253 0.0089081 1.57393e-07 271.788 
-0.95 -0.13 -0.986951 6.04548 0.00906007 0.00867039 -0.000162876 0.00887902 1.57132e-07 271.35 
-0.77 -0.17 -4.20183 5.29723 0.00915293 0.0087255 -0.000105289 0.00895779 1.58263e-07 271.802 
-0.85 -0.15 -2.70502 6.29464 0.00911283 0.00867563 -0.000118793 0.00891174 1.57623e-07 271.502 
-0.93 -0.13 -1.15274 6.18749 0.00907825 0.00867005 -0.000157075 0.00889289 1.57216e-07 271.629 
-0.83 -0.15 -3.05852 5.94021 0.0091234 0.00869547 -0.00011749 0.00892349 1.5778e-07 271.589 
-0.91 -0.13 -1.57547 6.45637 0.00908079 0.00866298 -0.000146186 0.00889101 1.57266e-07 271.485 
-0.99 -0.11 -0.0845746 5.6906 0.00904392 0.00869532 -0.000186984 0.00888353 1.57002e-07 271.714 
-0.81 -0.15 -3.42388 6.02308 0.00913095 0.00870811 -0.000120197 0.00893205 1.57927e-07 271.597 
-0.89 -0.13 -1.95887 6.62934 0.0090878 0.00866318 -0.000133945 0.00889287 1.57299e-07 271.485 
-0.97 -0.11 -0.488008 6.22587 0.00903859 0.00867276 -0.00018029 0.00887376 1.56985e-07 271.445 
-0.79 -0.15 -3.8229 5.85106 0.00913208 0.00872277 -0.000121744 0.00894682 1.58196e-07 271.583 
-0.87 -0.13 -2.38338 6.66345 0.00909521 0.00866789 -0.000134801 0.00889872 1.57399e-07 271.491 
-0.95 -0.11 -0.776088 6.3223 0.00904511 0.00866709 -0.000175064 0.00887372 1.57088e-07 271.264 
-0.77 -0.15 -4.14095 5.65503 0.00913318 0.00872234 -0.000115679 0.00894573 1.58216e-07 271.517 
-0.85 -0.13 -2.71435 6.42178 0.00910166 0.00867479 -0.000127978 0.0089033 1.57511e-07 271.437 
-0.93 -0.11 -1.29187 6.70839 0.00905294 0.00865753 -0.000165614 0.00887298 1.57051e-07 271.306 
-0.75 -0.15 -4.37575 5.57072 0.00914131 0.00873769 -0.00011186 0.00895453 1.58325e-07 271.596 
-0.83 -0.13 -3.02334 6.41394 0.00911111 0.00869204 -0.000129798 0.00891625 1.5751e-07 271.834 
-0.91 -0.11 -1.65667 6.82618 0.00905908 0.00864846 -0.000151697 0.00887467 1.57062e-07 271.339 
-0.99 -0.09 -0.117507 5.88199 0.00900601 0.00868262 -0.000199723 0.00885687 1.56732e-07 271.365 
-0.81 -0.13 -3.52524 6.39722 0.00911392 0.00870724 -0.000122408 0.00892792 1.579e-07 271.519 
-0.89 -0.11 -2.00632 7.03111 0.00907391 0.00866014 -0.000145662 0.00888601 1.57308e-07 271.26 
-0.97 -0.09 -0.336238 6.71007 0.00902739 0.00866517 -0.000187567 0.00886595 1.56865e-07 271.413 
-0.79 -0.13 -3.70176 6.22643 0.00912104 0.00871803 -0.000121676 0.00893638 1.57923e-07 271.735 
-0.87 -0.11 -2.25087 6.95087 0.00908342 0.00866237 -0.000140524 0.00889269 1.57338e-07 271.413 
-0.95 -0.09 -0.833616 6.76042 0.00903775 0.00865947 -0.000179971 0.00887235 1.56881e-07 271.58 
-0.77 -0.13 -3.99246 5.97476 0.00912354 0.00871783 -0.000119372 0.00893404 1.58032e-07 271.477 
-0.85 -0.11 -2.65192 6.85217 0.0090859 0.0086722 -0.000133984 0.00889495 1.57427e-07 271.327 
-0.93 -0.09 -1.15008 6.9555 0.00904123 0.00864774 -0.000171795 0.00886803 1.57047e-07 271.162 
-0.83 -0.11 -3.10714 6.8664 0.00908677 0.00868598 -0.000131564 0.00890491 1.57551e-07 271.418 
-0.91 -0.09 -1.40246 7.20203 0.00904546 0.00863869 -0.000160658 0.00886191 1.56926e-07 271.183 
-0.99 -0.07 -0.206978 6.20348 0.00900508 0.00867782 -0.000201836 0.00885763 1.56687e-07 271.466 
-0.81 -0.11 -3.34853 6.59278 0.00909676 0.00870759 -0.0001319 0.00891885 1.57533e-07 271.875 
-0.89 -0.09 -1.83386 7.37579 0.00905519 0.00865409 -0.000159352 0.0088752 1.57119e-07 271.256 
-0.97 -0.07 -0.508837 6.97414 0.00899791 0.00865341 -0.000201528 0.00884609 1.56504e-07 271.429 
-0.79 -0.11 -3.62074 6.53737 0.00910511 0.00871348 -0.000130136 0.00892771 1.57892e-07 271.525 
-0.87 -0.09 -2.09688 7.23709 0.00906737 0.0086546 -0.000149394 0.008883 1.57258e-07 271.254 
-0.95 -0.07 -0.732923 7.1415 0.00899912 0.00865157 -0.000185906 0.00884886 1.5653e-07 271.469 
-0.77 -0.11 -4.01508 6.22643 0.00912243 0.00871483 -0.000131554 0.00893284 1.57947e-07 271.587 
-0.85 -0.09 -2.43381 7.24192 0.0090774 0.00866716 -0.000142874 0.00888899 1.57247e-07 271.456 
-0.93 -0.07 -1.19283 7.40535 0.00901198 0.00863384 -0.000180852 0.00884769 1.56637e-07 271.248 
-0.75 -0.11 -4.43872 6.09535 0.00913562 0.00874905 -0.000131998 0.00895535 1.58331e-07 271.61 
-0.83 -0.09 -2.74392 7.20121 0.00908654 0.0086826 -0.000137969 0.00890247 1.57442e-07 271.531 
-0.91 -0.07 -1.58779 7.51887 0.00902934 0.00863738 -0.000174257 0.00885671 1.5671e-07 271.398 
-0.99 -0.05 -0.0856487 6.60408 0.0089808 0.00866769 -0.000214168 0.00883955 1.56411e-07 271.389 
-0.81 -0.09 -3.21522 6.9763 0.00909468 0.00871039 -0.000139497 0.00891695 1.57696e-07 271.534 
-0.89 -0.07 -1.87206 7.61828 0.00904029 0.0086473 -0.000166899 0.00886779 1.56948e-07 271.325 
-0.97 -0.05 -0.519134 7.14934 0.00900113 0.00864659 -0.000203375 0.00884627 1.56531e-07 271.387 
-0.79 -0.09 -3.65881 6.8789 0.00909534 0.00871338 -0.000137449 0.00891951 1.57733e-07 271.55 
-0.87 -0.07 -2.20682 7.66837 0.00904327 0.00864258 -0.000158269 0.00886148 1.56741e-07 271.49 
-0.95 -0.05 -0.786874 7.56736 0.00900873 0.00864444 -0.000195132 0.00884673 1.56506e-07 271.445 
-0.77 -0.09 -3.98783 6.68215 0.00909383 0.00871607 -0.000135972 0.00891943 1.57794e-07 271.442 
-0.85 -0.07 -2.46709 7.48928 0.00905124 0.0086576 -0.000150836 0.00887583 1.56983e-07 271.511 
-0.93 -0.05 -1.16245 7.81822 0.00900461 0.00862632 -0.000181883 0.00883788 1.56441e-07 271.287 
-0.75 -0.09 -4.30226 6.53269 0.00909384 0.00874679 -0.00014294 0.0089338 1.57985e-07 271.551 
-0.83 -0.07 -2.92093 7.70361 0.0090599 0.00868703 -0.000144641 0.00888918 1.57078e-07 271.755 
-0.91 -0.05 -1.49879 7.94018 0.00900653 0.00863094 -0.000180112 0.00884065 1.56466e-07 271.328 
-0.99 -0.03 -0.209343 6.96263 0.0089565 0.00865471 -0.000228833 0.0088222 1.56108e-07 271.383 
-0.81 -0.07 -3.21001 7.45033 0.0090594 0.00870207 -0.00014572 0.00889886 1.57299e-07 271.667 
-0.89 -0.05 -1.81359 7.93994 0.00900909 0.00863584 -0.000174977 0.00884542 1.56572e-07 271.29 