ITEM: TIMESTEP
1020000
ITEM: NUMBER OF CELLS
5000
ITEM: BOX BOUNDS ss ss pp
-1 1
-0.5 0.5
-0.5 0.5
ITEM: CELLS xc yc f_U[*] f_V[*] f_Tau[1] f_Tau[2] f_Tau[3] f_Press[*] f_Mrho[*] f_Ttra[*] 
-0.99 -0.49 -0.194282 0.255605 0.00899342 0.00874863 -2.70335e-05 0.00888406 1.56681e-07 272.285 
-0.97 -0.49 -0.495883 0.0459421 0.00899039 0.00874781 -2.96542e-05 0.00888073 1.56537e-07 272.434 
-0.95 -0.49 -0.637225 0.0797023 0.00898871 0.00874294 -3.18327e-05 0.00887516 1.56578e-07 272.193 
-0.93 -0.49 -0.871935 0.130138 0.00899852 0.00875039 -2.37298e-05 0.008881 1.56737e-07 272.095 
-0.91 -0.49 -1.14272 0.10071 0.009002 0.00872651 -1.94145e-05 0.00886794 1.56495e-07 272.115 
-0.99 -0.47 -0.194302 0.528925 0.00901409 0.00876935 -1.58315e-05 0.00890298 1.56965e-07 272.372 
-0.89 -0.49 -1.51113 0.235859 0.00901557 0.00873997 -2.39415e-05 0.00888 1.56748e-07 272.046 
-0.97 -0.47 -0.477346 0.304161 0.0090152 0.00874539 -3.3049e-05 0.00889364 1.56764e-07 272.436 
-0.87 -0.49 -1.68643 0.0107694 0.00903326 0.00875873 -1.65255e-05 0.0088967 1.57023e-07 272.08 
-0.95 -0.47 -0.728669 0.343013 0.00902311 0.00874857 -3.18553e-05 0.00889302 1.5682e-07 272.318 
-0.85 -0.49 -1.88865 0.122991 0.00903896 0.00875721 -8.80415e-06 0.00889961 1.56879e-07 272.418 
-0.93 -0.47 -0.918532 0.332309 0.00902403 0.00874329 -3.46422e-05 0.00888906 1.56793e-07 272.245 
-0.83 -0.49 -1.97885 -0.0272184 0.00904763 0.00876698 -1.07593e-06 0.00891173 1.57127e-07 272.359 
-0.91 -0.47 -1.24145 0.584356 0.0090368 0.00873123 -3.15816e-05 0.00888761 1.56883e-07 272.044 
-0.99 -0.45 -0.0989183 0.86809 0.00904734 0.00877148 -2.7824e-05 0.00891892 1.57197e-07 272.457 
-0.81 -0.49 -2.12669 0.249917 0.00905947 0.0087709 1.2914e-05 0.00892105 1.57341e-07 272.273 
-0.89 -0.47 -1.60301 0.43611 0.0090412 0.00873801 -3.11631e-05 0.00888785 1.56926e-07 271.977 
-0.97 -0.45 -0.408878 0.619491 0.0090477 0.00875821 -3.31701e-05 0.00891447 1.57195e-07 272.325 
-0.79 -0.49 -2.4597 0.0694852 0.00906851 0.00877931 9.46225e-06 0.00893122 1.57473e-07 272.356 
-0.87 -0.47 -1.88104 0.234032 0.00904655 0.00874812 -2.76887e-05 0.0089054 1.57175e-07 272.082 
-0.95 -0.45 -0.780334 0.644854 0.00904828 0.00874493 -3.65441e-05 0.00890469 1.56981e-07 272.396 
-0.77 -0.49 -2.49573 -0.0343812 0.00907162 0.00878966 2.20213e-05 0.0089402 1.57574e-07 272.454 
-0.85 -0.47 -2.00114 0.33875 0.00905616 0.0087521 -1.60932e-05 0.00891379 1.57132e-07 272.414 
-0.93 -0.45 -1.1693 0.546059 0.00905927 0.00874212 -4.24769e-05 0.00890513 1.57111e-07 272.185 
-0.83 -0.47 -2.41893 0.160033 0.00906348 0.00875766 -1.0781e-05 0.00891889 1.57251e-07 272.362 
-0.91 -0.45 -1.31575 0.789828 0.00905736 0.00873407 -3.59164e-05 0.00889646 1.57072e-07 271.987 
-0.99 -0.43 -0.194677 1.11951 0.00905916 0.00876636 -3.46464e-05 0.00892949 1.5759e-07 272.099 
-0.81 -0.47 -2.63731 0.476087 0.00907266 0.00876167 -3.80768e-06 0.00892923 1.57385e-07 272.446 
-0.89 -0.45 -1.65263 0.792626 0.00906977 0.00873194 -3.89515e-05 0.00890064 1.57103e-07 272.062 
-0.97 -0.43 -0.472508 0.939081 0.00907502 0.00876806 -3.71079e-05 0.00893178 1.57517e-07 272.296 
-0.79 -0.47 -2.94314 0.386001 0.00908487 0.00877245 7.05975e-06 0.00894252 1.57669e-07 272.36 
-0.87 -0.45 -2.04958 0.52747 0.00907434 0.00874352 -2.66416e-05 0.00891148 1.57223e-07 272.184 
-0.95 -0.43 -0.721449 0.918193 0.00908134 0.00874813 -4.56243e-05 0.00892001 1.57399e-07 272.14 
-0.77 -0.47 -3.22719 0.0867705 0.00909483 0.00878062 1.13619e-05 0.00894746 1.57866e-07 272.171 
-0.85 -0.45 -2.35036 0.498507 0.00907999 0.00874148 -2.35611e-05 0.00891802 1.57313e-07 272.23 
-0.93 -0.43 -0.920613 0.947356 0.00908302 0.00874137 -3.88607e-05 0.00891658 1.57301e-07 272.205 
-0.75 -0.47 -3.25608 0.309684 0.00910397 0.00879354 1.73974e-05 0.0089527 1.57747e-07 272.535 
-0.83 -0.45 -2.54467 0.574437 0.00909069 0.00875899 -2.05981e-05 0.00893193 1.57575e-07 272.2 
-0.91 -0.43 -1.47415 1.04867 0.0090899 0.00873676 -4.43656e-05 0.00891421 1.57274e-07 272.181 
-0.99 -0.41 -0.179055 1.46379 0.00908009 0.00876728 -4.90194e-05 0.00893612 1.57696e-07 272.119 
-0.81 -0.45 -2.89758 0.837429 0.00909323 0.00874633 -1.36958e-05 0.00893031 1.57517e-07 272.251 
-0.89 -0.43 -1.63319 1.11733 0.00908495 0.00872799 -4.17918e-05 0.00891168 1.57311e-07 272.039 
-0.97 -0.41 -0.364552 1.12056 0.00908762 0.00876771 -5.00549e-05 0.00893647 1.57601e-07 272.293 
-0.79 -0.45 -2.99833 0.508735 0.00910248 0.00876447 -3.01552e-08 0.00894349 1.57747e-07 272.256 
-0.87 -0.43 -1.88454 0.886334 0.00908938 0.00873185 -3.98991e-05 0.00891769 1.57326e-07 272.197 
-0.95 -0.41 -0.590476 1.2485 0.00909692 0.00875443 -4.71339e-05 0.00893843 1.57609e-07 272.339 
-0.77 -0.45 -3.37858 0.431546 0.00910996 0.00877684 4.8904e-06 0.00895022 1.5776e-07 272.437 
-0.85 -0.43 -2.25109 0.863848 0.00910457 0.00874128 -3.22856e-05 0.00893001 1.5757e-07 272.149 
-0.93 -0.41 -1.2304 1.4193 0.00909714 0.00873131 -4.63125e-05 0.00892528 1.57472e-07 272.175 
-0.75 -0.45 -3.7149 0.472249 0.00911111 0.00878498 1.00474e-05 0.00895435 1.579e-07 272.322 
-0.83 -0.43 -2.63482 0.82589 0.00910706 0.00875054 -2.05413e-05 0.00893553 1.57598e-07 272.271 
-0.91 -0.41 -1.40553 1.33507 0.0091017 0.00873768 -4.17882e-05 0.00892693 1.576e-07 272.004 
-0.99 -0.39 -0.150832 1.76138 0.00908425 0.00877281 -5.24364e-05 0.00893811 1.57828e-07 271.951 
-0.81 -0.43 -3.0019 1.05778 0.00911411 0.00874025 -1.84599e-05 0.00893848 1.57693e-07 272.195 
-0.89 -0.41 -1.69015 1.35865 0.00910377 0.00873233 -4.57022e-05 0.00892662 1.57464e-07 272.231 
-0.97 -0.39 -0.537602 1.34679 0.00909732 0.00876989 -5.61032e-05 0.00894018 1.57778e-07 272.1 
-0.79 -0.43 -3.36942 0.833098 0.0091219 0.00875475 -9.90883e-06 0.00895089 1.57906e-07 272.206 
-0.87 -0.41 -2.07995 1.22459 0.00910685 0.0087267 -4.06507e-05 0.00893048 1.57462e-07 272.351 
-0.95 -0.39 -0.865272 1.58804 0.00909642 0.00874689 -5.19215e-05 0.00892899 1.57493e-07 272.252 
-0.77 -0.43 -3.63857 0.759747 0.00912787 0.00877086 7.50868e-07 0.00895843 1.5802e-07 272.239 
-0.85 -0.41 -2.61191 1.19889 0.00910462 0.00873628 -3.91616e-05 0.00893124 1.5765e-07 272.05 
-0.93 -0.39 -0.801273 1.68789 0.00910511 0.00873292 -4.69542e-05 0.0089285 1.57525e-07 272.181 
-0.83 -0.41 -2.76559 1.21328 0.00911625 0.00873886 -3.16407e-05 0.00893178 1.57639e-07 272.085 
-0.91 -0.39 -1.2624 1.76238 0.00911043 0.00873607 -4.95422e-05 0.00893406 1.57646e-07 272.142 
-0.99 -0.37 0.0544618 1.99452 0.00909181 0.00878682 -6.30293e-05 0.00894835 1.58025e-07 271.924 
-0.81 -0.41 -3.00267 1.3482 0.00912213 0.00873524 -2.21723e-05 0.00893611 1.57764e-07 272.001 
-0.89 -0.39 -1.56148 1.59224 0.00911609 0.00873595 -4.73506e-05 0.00893924 1.57694e-07 272.217 
-0.97 -0.37 -0.397646 1.91705 0.00909654 0.00875835 -6.27672e-05 0.00893794 1.57765e-07 272.055 
-0.79 -0.41 -3.33319 1.10344 0.00913363 0.00874721 -1.99948e-05 0.00895207 1.57948e-07 272.17 
-0.87 -0.39 -1.90445 1.68104 0.00911852 0.00871679 -4.66148e-05 0.00893103 1.57644e-07 272.053 
-0.95 -0.37 -0.846074 1.77491 0.00910754 0.00874386 -5.57912e-05 0.00893634 1.57763e-07 272.01 
-0.77 -0.41 -3.731 1.15607 0.00914424 0.00877173 -1.49556e-05 0.00897078 1.58289e-07 272.151 
-0.85 -0.39 -2.25945 1.59955 0.00912803 0.00873697 -4.15722e-05 0.00894312 1.57924e-07 271.938 
-0.93 -0.37 -1.25378 1.8678 0.00911197 0.00873457 -5.91129e-05 0.00893481 1.57744e-07 271.997 
-0.75 -0.41 -3.9917 0.980529 0.00915586 0.00877817 -1.12455e-05 0.00897819 1.58365e-07 272.245 
-0.83 -0.39 -2.67265 1.5388 0.00912673 0.00872623 -3.95883e-05 0.00893329 1.57711e-07 272.006 
-0.91 -0.37 -1.38122 1.9934 0.00912304 0.00873055 -5.8577e-05 0.00893658 1.57643e-07 272.225 
-0.99 -0.35 -0.210887 2.15696 0.00910227 0.00878562 -7.5545e-05 0.00895439 1.58264e-07 271.697 
-0.81 -0.39 -2.95812 1.53974 0.0091358 0.00873349 -3.47696e-05 0.00894422 1.57769e-07 272.239 
-0.89 -0.37 -1.67858 1.93262 0.00912994 0.00873294 -5.12077e-05 0.00894107 1.57906e-07 271.907 
-0.97 -0.35 -0.418084 2.39826 0.00910886 0.00875144 -6.69234e-05 0.00894156 1.57867e-07 271.99 
-0.79 -0.39 -3.28883 1.5554 0.00914262 0.00873838 -2.77577e-05 0.00895212 1.58041e-07 272.011 
-0.87 -0.37 -2.12958 2.17342 0.00913141 0.00871739 -4.93829e-05 0.00893669 1.57671e-07 272.179 
-0.95 -0.35 -0.7811 2.11131 0.00911655 0.00873892 -6.54701e-05 0.00893641 1.57771e-07 271.998 
-0.77 -0.39 -3.77301 1.50644 0.009152 0.00877169 -2.27403e-05 0.00897304 1.58345e-07 272.124 
-0.85 -0.37 -2.51767 2.0102 0.00913449 0.00873092 -5.02338e-05 0.00894063 1.57862e-07 271.969 
-0.93 -0.35 -1.18284 2.23066 0.00912503 0.00873485 -6.41611e-05 0.00893975 1.57828e-07 272.002 
-0.83 -0.37 -2.97049 1.81169 0.0091405 0.00872011 -4.16016e-05 0.00893498 1.57784e-07 271.933 
-0.91 -0.35 -1.51733 2.33874 0.00912098 0.00873144 -5.72571e-05 0.00893211 1.57649e-07 272.078 
-0.81 -0.37 -3.22575 1.76722 0.00914734 0.00872898 -3.66226e-05 0.00895034 1.57979e-07 272.064 
-0.89 -0.35 -1.92288 2.44242 0.00912181 0.00872448 -5.54499e-05 0.00893014 1.57667e-07 271.987 
-0.79 -0.37 -3.62347 1.97595 0.00914926 0.00873668 -3.27714e-05 0.00896096 1.58238e-07 271.94 
-0.87 -0.35 -2.29273 2.35282 0.00913393 0.00871868 -5.81964e-05 0.00893748 1.57734e-07 272.095 
-0.77 -0.37 -3.81534 1.9894 0.00915452 0.00876528 -2.863e-05 0.00896954 1.58215e-07 272.241 
-0.85 -0.35 -2.61841 2.46618 0.00914388 0.00872106 -5.13362e-05 0.00893925 1.57877e-07 271.902 
-0.83 -0.35 -2.97567 2.15628 0.00914834 0.0087188 -4.70823e-05 0.00894179 1.5796e-07 271.836 
-0.81 -0.35 -3.44381 2.19496 0.00915253 0.00872618 -4.76e-05 0.00895317 1.58003e-07 272.107 
-0.79 -0.35 -3.73925 2.22586 0.00916777 0.00873301 -4.32942e-05 0.00896143 1.5829e-07 271.865 
-0.77 -0.35 -3.95218 2.24247 0.00917897 0.00875491 -3.54445e-05 0.00897691 1.58354e-07 272.225 
-0.75 -0.35 -4.22376 2.25643 0.00918783 0.00876959 -2.95851e-05 0.00898772 1.58635e-07 272.07 
-0.75 -0.49 -2.73805 0.1787 0.00907795 0.00879284 2.5396e-05 0.00893677 1.57557e-07 272.379 
-0.75 -0.43 -3.86559 0.70614 0.00914098 0.00878446 -2.8271e-06 0.00897179 1.58155e-07 272.411 
-0.75 -0.39 -4.41689 1.39639 0.00915312 0.00877343 -1.96452e-05 0.0089753 1.58368e-07 272.152 
-0.75 -0.37 -4.1381 1.85933 0.00916143 0.0087699 -1.85834e-05 0.00897354 1.58364e-07 272.105 
-0.77 -0.33 -3.91604 2.49739 0.00916711 0.00874671 -4.82928e-05 0.00896444 1.58405e-07 271.759 
-0.73 -0.49 -3.02101 0.177577 0.00908563 0.00880981 2.56679e-05 0.00895489 1.57878e-07 272.376 
-0.73 -0.47 -3.28513 0.335505 0.00910935 0.00880178 2.34072e-05 0.00896667 1.58111e-07 272.332 
-0.73 -0.45 -3.91029 0.416595 0.00912606 0.00880245 1.16454e-05 0.00897219 1.5823e-07 272.295 
-0.73 -0.43 -4.28818 0.84286 0.00914686 0.00879962 1.62284e-08 0.00898233 1.58382e-07 272.34 
-0.73 -0.41 -4.39347 1.16055 0.00916522 0.00879808 -7.47101e-06 0.00898922 1.58561e-07 272.243 
-0.73 -0.39 -4.51134 1.44571 0.00915758 0.00879019 -9.20539e-06 0.00897809 1.58479e-07 272.047 
-0.73 -0.37 -4.7132 1.76291 0.00916611 0.00877738 -2.55158e-05 0.00897551 1.58498e-07 271.936 
-0.73 -0.35 -4.50251 1.9913 0.00918975 0.00878086 -2.5546e-05 0.00898897 1.58665e-07 272.057 
-0.81 -0.29 -3.27477 3.33085 0.00916092 0.00871783 -6.5895e-05 0.0089468 1.58047e-07 271.838 
-0.89 -0.27 -1.9189 3.83712 0.00912817 0.00869818 -8.75772e-05 0.00893129 1.57733e-07 271.907 
-0.97 -0.25 -0.510425 3.79061 0.00908849 0.00872248 -0.000111082 0.00891734 1.57676e-07 271.582 
-0.83 -0.29 -2.96402 3.45325 0.00915392 0.00871805 -6.81519e-05 0.00894601 1.57825e-07 272.198 
-0.91 -0.27 -1.46549 3.92536 0.00912974 0.00871096 -9.09391e-05 0.00893453 1.57778e-07 271.928 
-0.99 -0.25 -0.221305 3.75379 0.00908877 0.00875916 -0.000118555 0.00893677 1.58031e-07 271.562 
-0.79 -0.29 -3.55564 3.20895 0.00916994 0.00872488 -6.26427e-05 0.00895314 1.58177e-07 271.809 
-0.87 -0.27 -2.35231 3.98485 0.00913574 0.00870781 -7.54915e-05 0.00894153 1.57882e-07 271.963 
-0.95 -0.25 -0.776936 3.82652 0.00910376 0.00871896 -0.000105264 0.00892696 1.57799e-07 271.662 
-0.77 -0.29 -3.9374 3.27192 0.00918089 0.00873861 -5.68329e-05 0.00896849 1.58388e-07 271.912 
-0.85 -0.27 -2.71767 3.79424 0.00914973 0.00871187 -7.40401e-05 0.00894512 1.57964e-07 271.931 
-0.93 -0.25 -1.11958 4.0726 0.00910576 0.00870588 -0.000108193 0.00891902 1.57569e-07 271.817 
-0.75 -0.29 -4.53916 3.20333 0.009187 0.00875624 -5.65577e-05 0.00898466 1.58625e-07 271.994 
-0.83 -0.27 -3.09185 3.62431 0.00915756 0.00872068 -7.25226e-05 0.00895184 1.57988e-07 272.094 
-0.91 -0.25 -1.50113 4.23838 0.0091147 0.00869852 -9.96001e-05 0.00892045 1.57575e-07 271.85 
-0.99 -0.23 -0.0782425 4.04108 0.00906303 0.00875049 -0.000125323 0.00892142 1.57731e-07 271.61 
-0.81 -0.27 -3.48529 3.74694 0.00916178 0.00871582 -7.8631e-05 0.00894782 1.58056e-07 271.854 
-0.89 -0.25 -1.88697 4.21988 0.00912689 0.00869541 -8.68474e-05 0.00893194 1.57715e-07 271.959 
-0.97 -0.23 -0.386467 4.08045 0.00908285 0.00872959 -0.000121053 0.00891975 1.57738e-07 271.549 
-0.79 -0.27 -3.99888 3.57302 0.00917368 0.00871696 -7.16661e-05 0.00894876 1.5826e-07 271.532 
-0.87 -0.25 -2.16973 4.35596 0.00913857 0.00870452 -8.91429e-05 0.00894327 1.58015e-07 271.787 
-0.95 -0.23 -0.835667 4.26376 0.00908907 0.00870904 -0.000121743 0.00891127 1.57512e-07 271.679 
-0.77 -0.27 -4.32858 3.65945 0.0091765 0.00873572 -6.32384e-05 0.00896714 1.58474e-07 271.724 
-0.85 -0.25 -2.56257 4.21752 0.00915003 0.00870978 -8.9158e-05 0.0089456 1.57958e-07 271.956 
-0.93 -0.23 -1.22287 4.39683 0.00910396 0.00870288 -0.00011218 0.00891743 1.57483e-07 271.916 
-0.83 -0.25 -3.11704 4.12304 0.00915768 0.00870888 -8.18273e-05 0.00893939 1.58068e-07 271.578 
-0.91 -0.23 -1.5423 4.48839 0.00910967 0.00868626 -0.000102932 0.00892008 1.57484e-07 271.995 
-0.99 -0.21 -0.0229745 4.2207 0.00909305 0.00874914 -0.000134045 0.00893329 1.57896e-07 271.688 
-0.81 -0.25 -3.41818 4.11751 0.00916395 0.00872622 -7.59364e-05 0.00895442 1.58177e-07 271.847 
-0.89 -0.23 -1.92313 4.80052 0.00912047 0.00869669 -0.000104629 0.00892509 1.57618e-07 271.917 
-0.97 -0.21 -0.258532 4.4522 0.00909855 0.00871394 -0.000131174 0.00891693 1.57651e-07 271.613 
-0.79 -0.25 -3.85499 4.1405 0.00915472 0.00870655 -7.85027e-05 0.00894146 1.58146e-07 271.506 
-0.87 -0.23 -2.42911 4.57465 0.00913462 0.00869913 -0.000104005 0.00892967 1.57829e-07 271.694 
-0.95 -0.21 -0.613352 4.63302 0.00910461 0.00871163 -0.000124307 0.00892134 1.57594e-07 271.845 
-0.77 -0.25 -4.27066 3.82791 0.00916587 0.0087332 -7.66908e-05 0.00895505 1.58271e-07 271.704 
-0.85 -0.23 -2.67651 4.71556 0.00913885 0.00870643 -9.26786e-05 0.00893432 1.57879e-07 271.748 
-0.93 -0.21 -1.16513 4.86334 0.00910444 0.00869161 -0.000122192 0.00891404 1.57604e-07 271.605 
-0.83 -0.23 -3.04627 4.5454 0.00913616 0.00869806 -8.61227e-05 0.00892781 1.57834e-07 271.629 
-0.91 -0.21 -1.4787 4.76379 0.00911381 0.00868267 -0.00011608 0.00891724 1.57594e-07 271.721 
-0.99 -0.19 -0.219887 4.44171 0.00908018 0.00873907 -0.000146661 0.00892212 1.57675e-07 271.728 
-0.81 -0.23 -3.52261 4.35744 0.00914358 0.00871888 -8.10364e-05 0.0089444 1.58026e-07 271.803 
-0.89 -0.21 -1.83985 5.26415 0.00912567 0.0087009 -0.000112497 0.00893264 1.57746e-07 271.926 
-0.97 -0.19 -0.533682 4.7663 0.0090871 0.00870561 -0.000135703 0.0089066 1.57452e-07 271.64 
-0.79 -0.23 -3.70468 4.52833 0.00915925 0.00871701 -7.89146e-05 0.00895067 1.58168e-07 271.748 
-0.87 -0.21 -2.1588 5.02258 0.00912663 0.0086826 -0.000109511 0.00892061 1.57751e-07 271.552 
-0.95 -0.19 -0.821405 5.03297 0.00909912 0.00870985 -0.000131832 0.00891411 1.57575e-07 271.658 
-0.77 -0.23 -4.08387 4.28876 0.00916151 0.00872821 -8.78603e-05 0.00895299 1.58232e-07 271.709 
-0.85 -0.21 -2.74767 5.01922 0.0091324 0.00869752 -9.59005e-05 0.00892954 1.5781e-07 271.722 
-0.93 -0.19 -0.932743 5.23752 0.00910905 0.0086882 -0.00012624 0.00891541 1.57624e-07 271.613 
-0.75 -0.23 -4.58646 4.04627 0.00917261 0.00874371 -8.34135e-05 0.00896784 1.58439e-07 271.804 
-0.83 -0.21 -3.10808 4.83346 0.00914712 0.00869927 -9.21482e-05 0.00893516 1.57801e-07 271.908 
-0.91 -0.19 -1.40149 5.26867 0.00911007 0.00867701 -0.000123595 0.00890817 1.57462e-07 271.672 
-0.81 -0.21 -3.37415 4.74978 0.0091515 0.00871333 -8.77314e-05 0.00894861 1.58127e-07 271.756 
-0.89 -0.19 -1.88651 5.568 0.00911682 0.00869293 -0.000116229 0.00892239 1.57633e-07 271.809 
-0.79 -0.21 -3.74975 4.88299 0.00915115 0.00871816 -8.88405e-05 0.00894898 1.5824e-07 271.573 
-0.87 -0.19 -2.37716 5.40259 0.009117 0.00868158 -0.000109154 0.00891746 1.57691e-07 271.559 
-0.77 -0.21 -4.14422 4.71878 0.0091607 0.00873294 -9.17956e-05 0.00895742 1.58313e-07 271.704 
-0.85 -0.19 -2.61279 5.40707 0.00912278 0.00868524 -0.000109218 0.00892088 1.5768e-07 271.682 
-0.75 -0.21 -4.59784 4.49334 0.00916335 0.0087387 -9.39497e-05 0.00896283 1.58369e-07 271.772 
-0.83 -0.19 -2.9147 5.17489 0.00912398 0.00869909 -0.000104999 0.00892946 1.57801e-07 271.736 
-0.81 -0.19 -3.24551 5.14694 0.00914221 0.00870106 -9.7594e-05 0.00893676 1.57957e-07 271.688 
-0.79 -0.19 -3.76708 5.22592 0.00915989 0.00873122 -9.64915e-05 0.00896338 1.58288e-07 271.928 
-0.77 -0.19 -4.08901 5.18654 0.00916929 0.00873056 -0.000101596 0.00896454 1.58407e-07 271.759 
-0.99 -0.33 -0.119805 2.447 0.00909918 0.00877884 -8.48158e-05 0.00894836 1.58024e-07 271.925 
-0.97 -0.33 -0.438094 2.5772 0.00911437 0.00874959 -8.08968e-05 0.00894294 1.57891e-07 271.989 
-0.91 -0.33 -1.57284 2.78432 0.00914497 0.00872596 -6.60702e-05 0.00894115 1.57831e-07 272.04 
-0.99 -0.31 -0.200749 2.81494 0.00909159 0.00876988 -9.60696e-05 0.00894116 1.57955e-07 271.826 
-0.97 -0.31 -0.447236 2.84958 0.00909711 0.00874554 -8.90477e-05 0.00893283 1.57929e-07 271.618 
-0.87 -0.33 -2.26132 2.82941 0.00915253 0.00872364 -6.02616e-05 0.00894809 1.5794e-07 272.063 
-0.95 -0.31 -0.893576 3.04432 0.00910512 0.00872447 -8.33369e-05 0.00892761 1.57636e-07 271.963 
-0.85 -0.33 -2.5004 2.68433 0.00914657 0.0087125 -5.65434e-05 0.00894049 1.57717e-07 272.216 
-0.93 -0.31 -1.23197 2.96615 0.00912185 0.00872812 -8.28773e-05 0.00893965 1.57772e-07 272.095 
-0.91 -0.31 -1.50028 3.01445 0.00913409 0.00871949 -6.96348e-05 0.00894414 1.57733e-07 272.3 
-0.99 -0.29 -0.10844 3.10585 0.00908316 0.00876894 -0.000101735 0.00894032 1.5797e-07 271.774 
-0.81 -0.33 -3.48325 2.58303 0.00915924 0.00872627 -4.95493e-05 0.00895339 1.58134e-07 271.89 
-0.89 -0.31 -1.76612 3.1375 0.00913716 0.00871535 -6.3463e-05 0.00894121 1.57806e-07 272.084 
-0.97 -0.29 -0.422695 3.19053 0.00909383 0.00873657 -9.58686e-05 0.00892765 1.57684e-07 271.881 
-0.87 -0.31 -2.24616 3.14085 0.00914282 0.00871967 -6.27078e-05 0.0089393 1.57895e-07 271.872 
-0.95 -0.29 -0.734029 3.37374 0.00910369 0.00872207 -9.74986e-05 0.00892595 1.57557e-07 272.049 
-0.85 -0.31 -2.58893 2.92493 0.00914899 0.00871013 -5.97882e-05 0.00894186 1.57952e-07 271.853 
-0.93 -0.29 -1.07133 3.23341 0.0091074 0.00871979 -8.72239e-05 0.00892334 1.57564e-07 271.957 
-0.83 -0.31 -2.85893 3.12997 0.00915457 0.00871895 -5.74188e-05 0.00894865 1.57973e-07 272.023 
-0.91 -0.29 -1.33882 3.45953 0.00910826 0.00870791 -8.03109e-05 0.00891872 1.57496e-07 271.934 
-0.99 -0.27 -0.105961 3.39664 0.00909174 0.0087609 -0.000109993 0.00894061 1.58086e-07 271.584 
-0.81 -0.31 -3.17756 3.01573 0.0091594 0.0087192 -5.82484e-05 0.0089549 1.58053e-07 272.074 
-0.89 -0.29 -1.75648 3.5034 0.00912568 0.00871239 -7.65727e-05 0.00893222 1.57694e-07 272.004 
-0.97 -0.27 -0.504263 3.47472 0.00910023 0.0087362 -0.000105396 0.00893248 1.5776e-07 271.898 
-0.79 -0.31 -3.67491 2.71845 0.0091659 0.0087295 -5.50133e-05 0.0089558 1.58248e-07 271.766 
-0.87 -0.29 -2.10919 3.55985 0.00913837 0.00871514 -6.42664e-05 0.00894069 1.57885e-07 271.932 
-0.95 -0.27 -0.673953 3.68434 0.00910143 0.0087156 -9.81813e-05 0.0089216 1.57503e-07 272.009 
-0.77 -0.31 -4.18663 2.87692 0.00916955 0.00874151 -5.08665e-05 0.00895624 1.58256e-07 271.767 
-0.85 -0.29 -2.67568 3.31469 0.00914415 0.0087076 -6.54391e-05 0.00893404 1.57817e-07 271.847 
-0.93 -0.27 -1.00337 3.56048 0.00911346 0.00870989 -9.37806e-05 0.0089199 1.5738e-07 272.171 
-0.95 -0.33 -0.722871 2.58988 0.00912282 0.00872669 -7.29936e-05 0.00893629 1.57815e-07 271.918 
-0.93 -0.33 -1.09648 2.62264 0.00913387 0.0087349 -6.36305e-05 0.00894278 1.57819e-07 272.109 
-0.89 -0.33 -2.03671 2.70213 0.00915397 0.00872018 -6.11383e-05 0.00894387 1.57809e-07 272.159 
-0.83 -0.33 -2.92054 2.75223 0.00914883 0.00871423 -5.41227e-05 0.00894664 1.57967e-07 271.971 
-0.75 -0.31 -4.43986 2.74141 0.00917447 0.00875328 -4.94386e-05 0.0089753 1.58453e-07 272.007 
-0.75 -0.27 -4.5326 3.7221 0.00919072 0.00875373 -6.58714e-05 0.00898221 1.58691e-07 271.807 
-0.75 -0.25 -4.43145 3.82639 0.00917502 0.00875091 -6.87614e-05 0.00896956 1.58457e-07 271.826 
-0.75 -0.19 -4.41782 4.94472 0.00916801 0.00873642 -9.34453e-05 0.0089647 1.5844e-07 271.706 
-0.79 -0.33 -3.64308 2.34135 0.00915838 0.00873124 -5.10373e-05 0.00895582 1.58255e-07 271.755 
-0.75 -0.33 -4.29002 2.53604 0.00917562 0.00875989 -3.84892e-05 0.0089763 1.58556e-07 271.859 
-0.81 -0.17 -3.56415 5.56818 0.00912565 0.00869401 -0.000112776 0.00892068 1.57728e-07 271.594 
-0.79 -0.17 -3.88312 5.64532 0.00913928 0.00873135 -0.00011291 0.00895149 1.58133e-07 271.834 
-0.75 -0.17 -4.50132 5.46599 0.00916555 0.00873673 -0.000105114 0.00896021 1.58259e-07 271.882 
-0.73 -0.31 -4.83666 2.91292 0.00919203 0.00877496 -4.82399e-05 0.00899318 1.5876e-07 272.022 
-0.73 -0.29 -4.81285 3.19372 0.00918521 0.00876753 -5.55045e-05 0.00898883 1.58736e-07 271.931 
-0.73 -0.27 -4.9213 3.3134 0.00919986 0.00877154 -6.56307e-05 0.00899592 1.58826e-07 271.99 
-0.73 -0.25 -4.65265 3.78536 0.00918089 0.0087661 -6.63777e-05 0.00898218 1.58739e-07 271.724 
-0.73 -0.23 -4.90583 4.15332 0.00918452 0.00876874 -7.55633e-05 0.00898604 1.58819e-07 271.704 
-0.73 -0.21 -4.86589 4.37968 0.00917688 0.00876334 -9.33299e-05 0.00898299 1.58648e-07 271.905 
-0.73 -0.19 -4.93408 4.6907 0.00917026 0.00877194 -9.97397e-05 0.00897862 1.58624e-07 271.813 
-0.79 -0.05 -3.39175 7.66948 0.00906506 0.00871711 -0.000152191 0.0089046 1.57489e-07 271.515 
-0.87 -0.03 -2.27478 8.27844 0.00900563 0.00863245 -0.000177957 0.00883776 1.56408e-07 271.339 
-0.83 -0.05 -2.78139 7.97111 0.00904315 0.00867945 -0.000155095 0.00888433 1.57112e-07 271.547 
-0.91 -0.03 -1.65607 8.31666 0.00899509 0.00862706 -0.000188069 0.00883195 1.56223e-07 271.482 
-0.81 -0.05 -2.99067 7.67162 0.00905816 0.00869796 -0.000146438 0.00889639 1.57287e-07 271.613 
-0.89 -0.03 -1.93191 8.34664 0.00899804 0.00862912 -0.000178551 0.00883138 1.56303e-07 271.327 
-0.77 -0.05 -3.73529 7.33669 0.00907344 0.0087241 -0.000153167 0.00891519 1.57613e-07 271.625 
-0.85 -0.03 -2.53663 8.15383 0.00900987 0.00864622 -0.000177181 0.00885001 1.5659e-07 271.401 
-0.75 -0.05 -3.99017 7.04416 0.00907627 0.00874952 -0.000159357 0.00892338 1.57711e-07 271.705 
-0.83 -0.03 -2.72761 8.30444 0.00902731 0.00866972 -0.000164749 0.00886961 1.5694e-07 271.395 
-0.81 -0.03 -3.15355 7.94422 0.00903647 0.00869285 -0.000158082 0.00888091 1.57085e-07 271.489 
-0.79 -0.03 -3.26217 8.05627 0.00904819 0.00871812 -0.000158446 0.0088976 1.57418e-07 271.423 
-0.77 -0.03 -3.65982 7.57491 0.00905766 0.00872783 -0.000159573 0.00890325 1.57477e-07 271.495 
-0.95 -0.17 -0.721925 5.2619 0.00908072 0.00869519 -0.000141907 0.00889919 1.57364e-07 271.566 
-0.99 -0.15 -0.157525 5.01206 0.00903228 0.00870927 -0.000174019 0.00888935 1.57181e-07 271.582 
-0.89 -0.17 -2.02368 5.85726 0.00910615 0.00867644 -0.000124173 0.00890797 1.57347e-07 271.863 
-0.97 -0.15 -0.557505 5.46303 0.00905496 0.00870294 -0.000164747 0.00889179 1.57199e-07 271.625 
-0.95 -0.15 -0.910214 5.68715 0.00906615 0.00868205 -0.000151264 0.00888533 1.57127e-07 271.552 
-0.93 -0.15 -1.2711 6.04542 0.00907178 0.00867047 -0.000140345 0.00888611 1.57223e-07 271.41 
-0.83 -0.17 -3.07469 5.57216 0.00912536 0.00870394 -0.000107461 0.00893115 1.57781e-07 271.821 
-0.91 -0.15 -1.48712 6.1236 0.00908826 0.00867945 -0.000138237 0.00890256 1.57388e-07 271.627 
-0.99 -0.13 -0.219289 5.40957 0.00904223 0.00870812 -0.00018906 0.00888883 1.57159e-07 271.604 
-0.89 -0.15 -1.71794 6.20056 0.00909056 0.00866383 -0.000128579 0.00889385 1.57242e-07 271.614 
-0.97 -0.13 -0.497162 5.86265 0.00904752 0.00868371 -0.000173502 0.00888141 1.57145e-07 271.401 
-0.87 -0.15 -2.36566 6.11161 0.0090979 0.00868046 -0.000124389 0.00890852 1.57395e-07 271.797 
-0.95 -0.13 -0.961187 6.06764 0.0090602 0.00866961 -0.000162897 0.00887982 1.57134e-07 271.371 
-0.77 -0.17 -4.17565 5.32635 0.00915366 0.00872518 -0.000105184 0.00895589 1.5823e-07 271.801 
-0.85 -0.15 -2.64557 6.29702 0.00911105 0.00867576 -0.000117158 0.00891011 1.5759e-07 271.51 
-0.93 -0.13 -1.14951 6.20235 0.00907978 0.00867146 -0.000157393 0.00889411 1.57237e-07 271.63 
-0.83 -0.15 -3.00182 5.93302 0.00912316 0.00869519 -0.000117175 0.00892375 1.57753e-07 271.644 
-0.91 -0.13 -1.5922 6.46205 0.00908067 0.00866234 -0.000146818 0.00889145 1.57274e-07 271.485 
-0.99 -0.11 -0.0688889 5.70293 0.00904287 0.0086974 -0.000186578 0.00888355 1.56977e-07 271.758 
-0.81 -0.15 -3.42386 6.05151 0.00913183 0.00871007 -0.000119007 0.00893378 1.57911e-07 271.677 
-0.89 -0.13 -1.96109 6.6539 0.00908726 0.00866455 -0.000134299 0.008893 1.57304e-07 271.481 
-0.97 -0.11 -0.464091 6.2581 0.0090377 0.00867214 -0.000180637 0.00887335 1.56984e-07 271.433 
-0.79 -0.15 -3.85965 5.84581 0.00913214 0.00872124 -0.000121162 0.00894627 1.58149e-07 271.648 
-0.87 -0.13 -2.36661 6.6528 0.00909617 0.00866782 -0.000132961 0.00889861 1.57383e-07 271.515 
-0.95 -0.11 -0.773507 6.3815 0.00904614 0.00866814 -0.000175422 0.00887419 1.57084e-07 271.285 
-0.77 -0.15 -4.14987 5.65041 0.0091351 0.00872402 -0.000115522 0.0089459 1.58211e-07 271.531 
-0.85 -0.13 -2.69244 6.38372 0.00910714 0.00867647 -0.000126593 0.00890588 1.57517e-07 271.507 
-0.93 -0.11 -1.28657 6.72795 0.00905408 0.00865774 -0.000167268 0.00887332 1.57065e-07 271.292 
-0.75 -0.15 -4.31312 5.57587 0.00914205 0.00873606 -0.00011205 0.00895382 1.58292e-07 271.631 
-0.83 -0.13 -3.02125 6.46076 0.00911735 0.00869263 -0.000130325 0.00891789 1.57501e-07 271.901 
-0.91 -0.11 -1.62119 6.81452 0.00906303 0.00864897 -0.000152457 0.00887696 1.57079e-07 271.38 
-0.99 -0.09 -0.114894 5.88839 0.00900406 0.00868516 -0.000198564 0.00885827 1.56731e-07 271.408 
-0.81 -0.13 -3.53827 6.40707 0.00911743 0.00870832 -0.000121585 0.00892912 1.57903e-07 271.549 
-0.89 -0.11 -1.89272 7.00294 0.00907773 0.00865983 -0.000144664 0.00888809 1.57356e-07 271.242 
-0.97 -0.09 -0.330971 6.75317 0.00902721 0.00866622 -0.000188392 0.00886664 1.56887e-07 271.395 
-0.79 -0.13 -3.69968 6.2319 0.00912391 0.00871731 -0.000121024 0.00893702 1.57902e-07 271.792 
-0.87 -0.11 -2.20439 6.99184 0.00908693 0.00866419 -0.000140392 0.00889584 1.57389e-07 271.421 
-0.95 -0.09 -0.810431 6.77925 0.00903899 0.00866022 -0.000180448 0.00887394 1.56901e-07 271.595 
-0.77 -0.13 -3.98717 5.96639 0.00912549 0.0087196 -0.000118502 0.00893494 1.58015e-07 271.533 
-0.85 -0.11 -2.62713 6.78368 0.00908909 0.00867435 -0.000135871 0.00889738 1.57429e-07 271.398 
-0.93 -0.09 -1.10209 6.94119 0.0090399 0.00864918 -0.000172995 0.00886947 1.57073e-07 271.16 
-0.83 -0.11 -3.07031 6.94916 0.00908885 0.00868427 -0.000129704 0.0089056 1.57546e-07 271.447 
-0.91 -0.09 -1.33197 7.16485 0.00904216 0.00863651 -0.000162477 0.00886028 1.56911e-07 271.159 
-0.99 -0.07 -0.232852 6.21 0.00900615 0.00868009 -0.000203528 0.00886023 1.56716e-07 271.494 
-0.81 -0.11 -3.33913 6.57901 0.00909917 0.00870988 -0.00013075 0.00891983 1.57538e-07 271.896 
-0.89 -0.09 -1.81365 7.40169 0.00905279 0.00865268 -0.000158882 0.00887431 1.57134e-07 271.204 
-0.97 -0.07 -0.549666 6.99878 0.00899944 0.00865412 -0.000202278 0.00884742 1.56533e-07 271.419 
-0.79 -0.11 -3.56263 6.5373 0.00910673 0.00871162 -0.000129544 0.00892695 1.57884e-07 271.517 
-0.87 -0.09 -2.07029 7.30481 0.00906754 0.00865874 -0.000150195 0.00888575 1.57325e-07 271.222 
-0.95 -0.07 -0.751586 7.15555 0.00899973 0.00865124 -0.000186471 0.00884814 1.56519e-07 271.466 
-0.77 -0.11 -3.937 6.23387 0.00912427 0.00871645 -0.000131388 0.00893425 1.57969e-07 271.591 
-0.85 -0.09 -2.44445 7.20996 0.00907758 0.00866866 -0.000142388 0.00889058 1.57278e-07 271.452 
-0.93 -0.07 -1.19654 7.38377 0.00901309 0.00863749 -0.000180305 0.0088509 1.5671e-07 271.22 
-0.75 -0.11 -4.40282 6.0465 0.00913868 0.00875033 -0.000131192 0.00895605 1.58321e-07 271.65 
-0.83 -0.09 -2.73486 7.24421 0.00908575 0.00868059 -0.000139069 0.00890195 1.5743e-07 271.535 
-0.91 -0.07 -1.62459 7.50541 0.00902849 0.00863491 -0.000173303 0.00885477 1.56718e-07 271.325 
-0.99 -0.05 -0.0852275 6.62209 0.00898113 0.00866763 -0.000216297 0.00883899 1.56389e-07 271.411 
-0.81 -0.09 -3.18179 7.01385 0.00909486 0.00871105 -0.000138634 0.00891583 1.57686e-07 271.519 
-0.89 -0.07 -1.9313 7.64723 0.00903922 0.0086468 -0.00017009 0.0088661 1.56922e-07 271.318 
-0.97 -0.05 -0.534501 7.19005 0.0090026 0.00864735 -0.000205024 0.00884604 1.5653e-07 271.382 
-0.79 -0.09 -3.65446 6.8161 0.00909699 0.00871476 -0.000136432 0.00892113 1.57732e-07 271.601 
-0.87 -0.07 -2.27224 7.73217 0.00904257 0.00864393 -0.000158638 0.00886193 1.56731e-07 271.521 
-0.95 -0.05 -0.793992 7.53315 0.00901 0.00864475 -0.000195951 0.00884638 1.56455e-07 271.522 
-0.77 -0.09 -3.97473 6.71863 0.00909459 0.00871761 -0.000136987 0.0089219 1.57846e-07 271.427 
-0.85 -0.07 -2.50858 7.52412 0.00905127 0.00865844 -0.000150668 0.00887704 1.56974e-07 271.563 
-0.93 -0.05 -1.18035 7.82176 0.00900774 0.00862719 -0.00018159 0.00883947 1.5649e-07 271.25 
-0.75 -0.09 -4.29532 6.53212 0.00909328 0.00874607 -0.000142439 0.00893327 1.58007e-07 271.497 
-0.83 -0.07 -2.91989 7.67559 0.0090615 0.00868776 -0.000144215 0.00889098 1.57117e-07 271.742 
-0.91 -0.05 -1.52867 7.94716 0.0090093 0.00863132 -0.00017992 0.00884114 1.56489e-07 271.303 
-0.99 -0.03 -0.197609 6.97543 0.00895515 0.00865524 -0.000229511 0.00882178 1.56075e-07 271.428 
-0.81 -0.07 -3.18925 7.51124 0.00906085 0.00870071 -0.000147762 0.00889836 1.57289e-07 271.67 
-0.89 -0.05 -1.88115 7.98752 0.00901131 0.00863634 -0.000175255 0.00884592 1.56583e-07 271.287 