ITEM: TIMESTEP
818500
ITEM: NUMBER OF CELLS
5000
ITEM: BOX BOUNDS ss ss pp
-1 1
-0.5 0.5
-0.5 0.5
ITEM: CELLS xc yc f_U[*] f_V[*] f_Tau[1] f_Tau[2] f_Tau[3] f_Press[*] f_Mrho[*] f_Ttra[*] 
-0.99 -0.49 0.0857214 0.0177151 0.00896491 0.00873172 -8.33371e-06 0.00887016 1.56851e-07 271.566 
-0.97 -0.49 -0.126772 -0.0158052 0.00895267 0.00878751 -2.23604e-05 0.00888154 1.56514e-07 272.5 
-0.95 -0.49 -0.54081 -0.185819 0.0089743 0.00876122 -4.1721e-05 0.00889345 1.57233e-07 271.617 
-0.93 -0.49 -0.736749 0.428333 0.0089685 0.00875267 -4.6733e-05 0.00888379 1.57027e-07 271.678 
-0.91 -0.49 -1.33037 -0.0663918 0.00896987 0.00870457 -2.7413e-05 0.00886158 1.56916e-07 271.19 
-0.99 -0.47 -0.0922773 -0.0403669 0.00900102 0.00875215 -1.44135e-05 0.00888913 1.57004e-07 271.881 
-0.89 -0.49 -1.48326 0.27416 0.00901303 0.00870742 -2.53553e-05 0.00889166 1.56759e-07 272.383 
-0.97 -0.47 -0.22214 0.681145 0.00900681 0.00880052 -2.59766e-05 0.00892213 1.57102e-07 272.72 
-0.87 -0.49 -1.94313 0.0487117 0.00904079 0.00879557 -6.49914e-06 0.00891946 1.5769e-07 271.623 
-0.95 -0.47 -0.86365 0.538481 0.00901221 0.00877597 -3.4598e-05 0.00891648 1.57415e-07 272.005 
-0.85 -0.49 -1.78621 0.133313 0.00905988 0.0088221 6.02584e-06 0.00893867 1.57758e-07 272.09 
-0.93 -0.47 -1.77668 0.539779 0.00901696 0.00874176 -3.62223e-05 0.00889326 1.56764e-07 272.424 
-0.83 -0.49 -1.91032 0.201382 0.00907827 0.00883221 1.74583e-05 0.00896787 1.58102e-07 272.384 
-0.91 -0.47 -1.64884 0.00159615 0.00899697 0.00871974 -3.5795e-05 0.00888408 1.56939e-07 271.839 
-0.99 -0.45 -0.363098 0.493492 0.00902325 0.00876123 -3.41277e-05 0.00891274 1.57295e-07 272.099 
-0.81 -0.49 -2.21229 -0.0267093 0.00905965 0.00878133 4.42622e-06 0.00891713 1.57307e-07 272.212 
-0.89 -0.47 -2.07026 0.716974 0.00898708 0.00870278 -6.28636e-05 0.00885702 1.56577e-07 271.638 
-0.97 -0.45 -0.604432 0.43823 0.00905513 0.00880097 -4.28005e-05 0.00894426 1.57278e-07 273.09 
-0.79 -0.49 -2.36099 -0.0366599 0.00906766 0.00875043 1.36192e-05 0.00891845 1.57664e-07 271.636 
-0.87 -0.47 -2.17422 0.198709 0.00901447 0.00875132 -3.63545e-05 0.00891641 1.57449e-07 271.944 
-0.95 -0.45 -0.494707 1.48158 0.00904967 0.0087895 -4.35123e-05 0.00894076 1.57405e-07 272.764 
-0.77 -0.49 -2.09467 -0.142552 0.00907248 0.00878196 4.14732e-05 0.00893306 1.57322e-07 272.672 
-0.85 -0.47 -2.50127 0.0918378 0.00905807 0.00882495 -2.64078e-05 0.00897119 1.58022e-07 272.624 
-0.93 -0.45 -0.745615 0.745349 0.00902531 0.00868892 -3.46431e-05 0.00889958 1.57006e-07 272.198 
-0.83 -0.47 -2.83876 0.208636 0.00907896 0.00881694 1.24979e-05 0.00896063 1.58001e-07 272.338 
-0.91 -0.45 -1.5235 0.654118 0.00904663 0.00877136 -2.31118e-05 0.00893864 1.57956e-07 271.748 
-0.99 -0.43 -0.593739 1.14915 0.00910914 0.00878974 -3.94485e-05 0.00896765 1.58085e-07 272.406 
-0.81 -0.47 -2.40515 0.0650429 0.00908692 0.00880183 1.39596e-05 0.00895227 1.57848e-07 272.348 
-0.89 -0.45 -1.84637 0.59275 0.00904082 0.00869941 -5.73407e-05 0.00889507 1.56944e-07 272.167 
-0.97 -0.43 -0.714043 0.399353 0.0091133 0.00877086 -3.53019e-05 0.00896275 1.57843e-07 272.676 
-0.79 -0.47 -2.70552 0.342679 0.00908747 0.00871766 1.42995e-05 0.00891897 1.57396e-07 272.114 
-0.87 -0.45 -1.88059 0.60411 0.00903755 0.00874211 -4.27323e-05 0.00890277 1.57288e-07 271.807 
-0.95 -0.43 -0.585403 1.47862 0.00912239 0.00879625 -2.69307e-05 0.00896368 1.58123e-07 272.221 
-0.77 -0.47 -2.91721 -0.156608 0.0090943 0.00878935 2.26172e-05 0.00893921 1.57688e-07 272.227 
-0.85 -0.45 -2.57453 0.165098 0.00903753 0.00879162 -4.12152e-05 0.00893945 1.5791e-07 271.852 
-0.93 -0.43 -0.790655 1.12927 0.00913194 0.00870636 -4.05266e-05 0.00893127 1.57504e-07 272.302 
-0.75 -0.47 -2.8521 0.204934 0.00909781 0.00880823 3.10644e-05 0.00895676 1.57629e-07 272.864 
-0.83 -0.45 -2.52397 0.489995 0.00906576 0.00878524 -2.91732e-05 0.00893838 1.57817e-07 271.979 
-0.91 -0.43 -1.16134 1.38559 0.00912967 0.00875062 -4.55666e-05 0.00893348 1.57498e-07 272.381 
-0.99 -0.41 -0.0932766 1.62988 0.00911313 0.00878851 -5.65889e-05 0.00897584 1.58356e-07 272.189 
-0.81 -0.45 -2.71669 0.519909 0.00910253 0.00878172 -1.19708e-05 0.00895521 1.57632e-07 272.812 
-0.89 -0.43 -1.55618 0.695899 0.00911778 0.0087151 -2.54665e-05 0.00891808 1.57561e-07 271.803 
-0.97 -0.41 -0.569598 0.962266 0.00912216 0.00876939 -5.47001e-05 0.00894983 1.58098e-07 271.843 
-0.79 -0.45 -2.95993 0.722713 0.00911331 0.00873027 1.86091e-05 0.00892274 1.58118e-07 270.986 
-0.87 -0.43 -1.67034 0.7898 0.00911776 0.00874922 -5.52372e-05 0.00894462 1.57721e-07 272.334 
-0.95 -0.41 -0.990946 1.33171 0.00912671 0.0087732 -2.11694e-05 0.0089396 1.58015e-07 271.676 
-0.77 -0.45 -3.4189 0.102544 0.0091315 0.00877636 1.4942e-05 0.00894164 1.57883e-07 271.965 
-0.85 -0.43 -1.92883 0.764119 0.00911908 0.00878347 -3.26414e-05 0.00896077 1.58017e-07 272.315 
-0.93 -0.41 -1.25587 1.72411 0.00912173 0.00872281 -2.47245e-05 0.0089401 1.57828e-07 272.012 
-0.75 -0.45 -3.68676 0.465526 0.00913643 0.00881014 1.62537e-05 0.00897161 1.58426e-07 271.941 
-0.83 -0.43 -2.94465 1.13741 0.00909557 0.00877813 -4.28759e-05 0.00895398 1.57728e-07 272.607 
-0.91 -0.41 -1.09831 1.42507 0.00912003 0.00874892 -3.31736e-05 0.00893682 1.57616e-07 272.279 
-0.99 -0.39 -0.315626 2.01842 0.00910766 0.00877775 -5.01217e-05 0.00895223 1.57943e-07 272.183 
-0.81 -0.43 -3.42858 0.326473 0.00909874 0.00874843 -6.52716e-06 0.00895928 1.58035e-07 272.239 
-0.89 -0.41 -1.50404 1.08564 0.00911051 0.00872745 -3.79079e-05 0.00892955 1.5745e-07 272.344 
-0.97 -0.39 -1.0202 1.60696 0.00911008 0.00877683 -2.8018e-05 0.0089534 1.57811e-07 272.446 
-0.79 -0.43 -3.0272 0.946939 0.00910385 0.0087428 -7.2608e-06 0.00894164 1.5776e-07 272.177 
-0.87 -0.41 -2.11075 1.00167 0.00909891 0.00874325 -2.74007e-05 0.00893604 1.57372e-07 272.676 
-0.95 -0.39 -1.08256 1.30193 0.00910678 0.00873857 -3.76703e-05 0.00892084 1.57398e-07 272.168 
-0.77 -0.43 -3.07977 0.840203 0.00913109 0.00875279 1.2486e-06 0.00896502 1.5775e-07 272.905 
-0.85 -0.41 -2.112 1.07567 0.00911688 0.0087721 -4.54329e-05 0.00895642 1.57944e-07 272.31 
-0.93 -0.39 -0.527002 1.9058 0.00912824 0.00874602 -2.59525e-05 0.00893732 1.57688e-07 272.169 
-0.83 -0.41 -2.23236 1.62371 0.00914712 0.00877546 -2.47641e-05 0.00897717 1.58068e-07 272.726 
-0.91 -0.39 -1.14397 1.39954 0.00909579 0.0087346 -3.87229e-05 0.00892298 1.57604e-07 271.877 
-0.99 -0.37 -0.117548 2.44756 0.0091084 0.00876611 -4.53299e-05 0.00898233 1.5886e-07 271.522 
-0.81 -0.41 -2.68604 1.06624 0.00912769 0.00874133 -1.21026e-05 0.00895855 1.58089e-07 272.124 
-0.89 -0.39 -0.97089 1.38329 0.00910521 0.00875114 -2.86385e-05 0.00895451 1.57937e-07 272.262 
-0.97 -0.37 -0.25722 2.09917 0.0091209 0.00876968 -4.3608e-05 0.00897614 1.58553e-07 271.861 
-0.79 -0.41 -3.23735 0.358376 0.00914991 0.00876521 -2.09226e-05 0.00896419 1.58156e-07 272.179 
-0.87 -0.39 -1.03803 1.30982 0.0091198 0.008769 -5.5528e-05 0.00896047 1.57847e-07 272.599 
-0.95 -0.37 -0.65624 1.67066 0.00912618 0.0087262 -3.75483e-05 0.00892442 1.57676e-07 271.796 
-0.77 -0.41 -4.26427 1.30457 0.00914587 0.00873105 -1.17767e-05 0.00894964 1.57984e-07 272.033 
-0.85 -0.39 -1.9385 1.47915 0.00913992 0.00876545 -5.73225e-05 0.0089756 1.58614e-07 271.739 
-0.93 -0.37 -1.21032 1.83472 0.00914957 0.00874229 -5.09165e-05 0.00895961 1.58322e-07 271.755 
-0.75 -0.41 -4.34828 1.82592 0.00917921 0.00879329 -8.87911e-06 0.00899893 1.58509e-07 272.627 
-0.83 -0.39 -2.18046 1.93584 0.00913427 0.00873697 -4.16485e-05 0.00896457 1.58194e-07 272.126 
-0.91 -0.37 -1.20829 1.67399 0.00917626 0.00874674 -3.50447e-05 0.00897948 1.58374e-07 272.268 
-0.99 -0.35 -0.274954 2.56285 0.00906497 0.00874954 -7.77183e-05 0.00893775 1.58222e-07 271.263 
-0.81 -0.39 -2.46105 1.23806 0.00917603 0.00875568 -2.09594e-05 0.00899323 1.58315e-07 272.787 
-0.89 -0.37 -1.48915 1.48088 0.00918057 0.00874795 -3.71385e-05 0.00896966 1.58338e-07 272.032 
-0.97 -0.35 -0.632867 2.25366 0.00908369 0.00875437 -5.91627e-05 0.0089358 1.58288e-07 271.092 
-0.79 -0.39 -3.52772 1.84472 0.00916992 0.0087558 -2.17018e-05 0.00898186 1.58321e-07 272.432 
-0.87 -0.37 -2.05108 2.11364 0.00918768 0.00878348 -4.84758e-05 0.00897986 1.58411e-07 272.216 
-0.95 -0.35 -0.653759 2.29481 0.00910906 0.00871932 -6.0288e-05 0.00892257 1.57992e-07 271.198 
-0.77 -0.39 -4.32159 1.46684 0.00918053 0.00875063 -3.13113e-05 0.00899257 1.59016e-07 271.564 
-0.85 -0.37 -2.20467 1.71412 0.00915282 0.00876834 -4.82162e-05 0.00897807 1.58872e-07 271.373 
-0.93 -0.35 -1.25652 2.0531 0.00912861 0.00873825 -5.59183e-05 0.00894058 1.58119e-07 271.527 
-0.83 -0.37 -2.46896 2.16674 0.00914952 0.00873582 -4.08405e-05 0.00895924 1.57926e-07 272.426 
-0.91 -0.35 -1.18413 1.99433 0.00912074 0.00873606 -5.10887e-05 0.00892406 1.57868e-07 271.456 
-0.81 -0.37 -3.10562 1.38654 0.00915464 0.00873089 -4.21193e-05 0.00896594 1.58375e-07 271.857 
-0.89 -0.35 -1.65684 2.04555 0.00914903 0.00876075 -5.98358e-05 0.00895515 1.58145e-07 271.924 
-0.79 -0.37 -3.6101 2.7055 0.00916074 0.00875783 -3.62826e-05 0.00898066 1.58513e-07 272.066 
-0.87 -0.35 -2.21675 2.18412 0.00914563 0.008782 -4.58643e-05 0.00897811 1.5859e-07 271.856 
-0.77 -0.37 -3.85912 2.18174 0.00914936 0.00875143 -2.10139e-05 0.00897401 1.58614e-07 271.69 
-0.85 -0.35 -2.2517 2.3817 0.00918687 0.00875473 -5.36714e-05 0.00899017 1.5883e-07 271.811 
-0.83 -0.35 -2.74983 2.27102 0.00920297 0.00872978 -4.22998e-05 0.00899024 1.5906e-07 271.42 
-0.81 -0.35 -3.73566 2.17574 0.0092017 0.00872301 -4.5524e-05 0.00898286 1.58475e-07 272.198 
-0.79 -0.35 -3.94188 2.81485 0.00922156 0.00875188 -2.68225e-05 0.00898177 1.58642e-07 271.877 
-0.77 -0.35 -3.78437 2.55916 0.00923294 0.00876202 -3.29947e-05 0.00901053 1.58986e-07 272.158 
-0.75 -0.35 -4.17107 2.58096 0.00921673 0.0087662 -1.55879e-05 0.00901091 1.59136e-07 271.914 
-0.75 -0.49 -2.30675 0.0515791 0.00907363 0.00880094 2.59672e-05 0.00893334 1.57244e-07 272.817 
-0.75 -0.43 -4.03448 0.620828 0.0091437 0.00881843 1.39015e-05 0.00898894 1.58349e-07 272.599 
-0.75 -0.39 -4.9367 2.11893 0.00917059 0.00877656 -1.69929e-05 0.00900021 1.58745e-07 272.26 
-0.75 -0.37 -4.10717 1.97668 0.00915205 0.00876337 -2.70977e-05 0.00896962 1.58297e-07 272.101 
-0.77 -0.33 -3.6782 2.39239 0.00916368 0.00873951 -4.39195e-05 0.00895683 1.58324e-07 271.667 
-0.73 -0.49 -2.41878 0.297059 0.00907415 0.00878949 1.37919e-05 0.00894234 1.57478e-07 272.685 
-0.73 -0.47 -3.12947 0.212422 0.00910586 0.00880992 1.03642e-05 0.00897532 1.5854e-07 271.858 
-0.73 -0.45 -3.72364 0.565257 0.00914051 0.00881574 8.35865e-06 0.00897519 1.5867e-07 271.63 
-0.73 -0.43 -4.90646 1.55328 0.00914 0.00881121 1.19893e-05 0.00898635 1.58395e-07 272.441 
-0.73 -0.41 -4.8956 1.67376 0.00918674 0.00882001 3.35725e-06 0.00901926 1.58809e-07 272.725 
-0.73 -0.39 -4.69109 1.88207 0.00918259 0.008799 -8.02684e-06 0.00900317 1.58399e-07 272.944 
-0.73 -0.37 -4.45284 1.99507 0.00916015 0.00881264 -2.56456e-05 0.0089948 1.58848e-07 271.92 
-0.73 -0.35 -4.53546 2.3884 0.009188 0.00881434 -3.63246e-06 0.00901119 1.58639e-07 272.773 
-0.81 -0.29 -3.30423 3.62553 0.00915608 0.0087079 -7.4692e-05 0.00893224 1.57818e-07 271.79 
-0.89 -0.27 -1.66776 3.50654 0.0091043 0.00871242 -8.78987e-05 0.00890435 1.57298e-07 271.837 
-0.97 -0.25 -0.545804 3.66399 0.0090919 0.00870892 -0.000107936 0.00889928 1.57338e-07 271.614 
-0.83 -0.29 -3.12941 3.09594 0.00913007 0.00870174 -8.08496e-05 0.00892641 1.57102e-07 272.851 
-0.91 -0.27 -1.33685 4.41607 0.00909872 0.00869926 -0.00010298 0.00890163 1.57386e-07 271.602 
-0.99 -0.25 -0.437749 3.52507 0.00906224 0.00870973 -0.00011081 0.00890871 1.57901e-07 270.932 
-0.79 -0.29 -3.6386 3.57327 0.00917476 0.00874209 -6.76139e-05 0.00895219 1.58379e-07 271.432 
-0.87 -0.27 -1.92007 3.86305 0.00914029 0.00878436 -8.6703e-05 0.008963 1.58083e-07 272.27 
-0.95 -0.25 -0.272427 3.79411 0.0090971 0.00873407 -0.00010746 0.00892099 1.57803e-07 271.474 
-0.77 -0.29 -4.23608 3.17671 0.00918069 0.00874438 -5.6909e-05 0.0089617 1.58919e-07 270.798 
-0.85 -0.27 -1.93724 3.7039 0.00913303 0.00872391 -5.86599e-05 0.00893848 1.57623e-07 272.317 
-0.93 -0.25 -0.649466 3.92282 0.00909477 0.00868761 -9.45127e-05 0.00890252 1.57527e-07 271.387 
-0.75 -0.29 -5.02166 3.47003 0.00917331 0.00875038 -4.50444e-05 0.00898372 1.58557e-07 272.082 
-0.83 -0.27 -2.73128 3.37674 0.00917063 0.00875063 -6.02259e-05 0.00896818 1.58377e-07 271.921 
-0.91 -0.25 -0.953454 3.9607 0.00911421 0.00872067 -9.47185e-05 0.0089177 1.57453e-07 271.977 
-0.99 -0.23 -0.0140107 4.26347 0.00901808 0.00871613 -0.000126061 0.00889328 1.57066e-07 271.901 
-0.81 -0.27 -3.36036 4.1022 0.00915844 0.00870475 -9.82822e-05 0.00892389 1.57579e-07 271.949 
-0.89 -0.25 -1.24895 3.92786 0.00910005 0.00869105 -0.000117741 0.00890188 1.57214e-07 271.908 
-0.97 -0.23 -0.113306 3.17822 0.00904524 0.00872484 -0.000138312 0.00890014 1.57615e-07 271.163 
-0.79 -0.27 -3.88822 4.27922 0.0091756 0.00872817 -7.96538e-05 0.00893 1.57981e-07 271.442 
-0.87 -0.25 -1.84699 4.43788 0.00913723 0.00875463 -8.6356e-05 0.00895166 1.57857e-07 272.314 
-0.95 -0.23 -0.418983 3.87078 0.00907712 0.00871 -0.000126176 0.00890607 1.57635e-07 271.308 
-0.77 -0.27 -4.29681 3.45571 0.00917113 0.00872668 -4.77083e-05 0.00894056 1.58213e-07 271.364 
-0.85 -0.25 -2.44785 4.06259 0.00915766 0.00873868 -0.000101969 0.00894299 1.57746e-07 272.242 
-0.93 -0.23 -0.797175 4.08386 0.00909566 0.00869887 -0.000129109 0.00890188 1.57509e-07 271.398 
-0.83 -0.25 -3.34573 4.45763 0.00917609 0.00872903 -9.51219e-05 0.00894178 1.58092e-07 271.61 
-0.91 -0.23 -1.19654 4.65598 0.00911782 0.00870482 -0.000106414 0.00892068 1.57364e-07 272.222 
-0.99 -0.21 0.292032 3.60819 0.00916016 0.00874063 -0.000120084 0.00896366 1.58271e-07 271.966 
-0.81 -0.25 -4.05746 4.29275 0.00917268 0.00870597 -6.94788e-05 0.00894813 1.57991e-07 271.977 
-0.89 -0.23 -1.99438 4.08647 0.00915419 0.00870853 -0.000118706 0.00895419 1.57922e-07 272.28 
-0.97 -0.21 0.271989 3.67082 0.00914155 0.00871616 -0.000127723 0.00895243 1.58301e-07 271.573 
-0.79 -0.25 -4.293 4.62509 0.00915616 0.00869727 -8.21374e-05 0.00893104 1.58135e-07 271.21 
-0.87 -0.23 -2.01517 4.34414 0.00917209 0.00872925 -0.000130678 0.00895112 1.58278e-07 271.572 
-0.95 -0.21 -0.63438 4.39243 0.00910539 0.00869295 -0.000131128 0.00892038 1.57496e-07 271.984 
-0.77 -0.25 -4.35685 3.5771 0.00917154 0.00871807 -6.36244e-05 0.00894531 1.58079e-07 271.739 
-0.85 -0.23 -2.49033 4.88535 0.00916475 0.00875769 -9.49136e-05 0.00896995 1.58135e-07 272.39 
-0.93 -0.21 -0.997433 4.77593 0.0091048 0.00868938 -0.000128905 0.00888807 1.56804e-07 272.196 
-0.83 -0.23 -3.27262 4.88453 0.00913631 0.00868832 -9.4215e-05 0.0089279 1.57617e-07 272.006 
-0.91 -0.21 -1.10314 4.22191 0.00913866 0.00871171 -0.000140503 0.00892887 1.57582e-07 272.095 
-0.99 -0.19 -0.115495 4.15205 0.00908681 0.00872289 -0.000140698 0.00891355 1.57497e-07 271.774 
-0.81 -0.23 -3.54217 4.35164 0.00918263 0.00870678 -9.78381e-05 0.00895798 1.57895e-07 272.44 
-0.89 -0.21 -1.37307 4.90509 0.00913642 0.00872828 -0.000129763 0.00895914 1.57951e-07 272.38 
-0.97 -0.19 -0.985288 4.06972 0.00913662 0.00871118 -0.000142336 0.00892119 1.58211e-07 270.779 
-0.79 -0.23 -3.46942 4.80642 0.00920368 0.00870892 -8.5485e-05 0.00896046 1.57854e-07 272.587 
-0.87 -0.21 -2.35939 4.89254 0.00911817 0.00866417 -0.000132176 0.00889767 1.57286e-07 271.654 
-0.95 -0.19 -0.871588 4.92048 0.00912871 0.00870784 -0.000104531 0.0089225 1.57836e-07 271.462 
-0.77 -0.23 -4.01724 4.2389 0.0091959 0.00872707 -9.19371e-05 0.00896048 1.58488e-07 271.497 
-0.85 -0.21 -3.34229 5.7631 0.00915113 0.00873992 -8.73726e-05 0.00895164 1.57936e-07 272.177 
-0.93 -0.19 -0.392876 4.61734 0.00913404 0.00870082 -0.000122002 0.00892254 1.57993e-07 271.195 
-0.75 -0.23 -4.46073 3.57007 0.00919296 0.00874471 -8.68487e-05 0.00897001 1.58799e-07 271.253 
-0.83 -0.21 -3.70262 5.06331 0.00915565 0.00871936 -9.55982e-05 0.00894754 1.58168e-07 271.653 
-0.91 -0.19 -1.2529 5.06722 0.00911347 0.00869436 -0.000135597 0.00890181 1.5744e-07 271.514 
-0.81 -0.21 -4.34946 4.41118 0.00912688 0.00868745 -9.42377e-05 0.00892255 1.5774e-07 271.63 
-0.89 -0.19 -2.04587 5.28471 0.00911584 0.00871824 -0.000125204 0.00893482 1.57817e-07 271.87 
-0.79 -0.21 -4.34486 4.6003 0.0091199 0.00871352 -9.46622e-05 0.00892474 1.57789e-07 271.613 
-0.87 -0.19 -2.43065 5.564 0.00912921 0.00867489 -0.000119378 0.00890968 1.57595e-07 271.487 
-0.77 -0.21 -3.83574 4.68029 0.00913164 0.00871379 -9.08197e-05 0.00894802 1.58246e-07 271.534 
-0.85 -0.19 -2.36438 5.7185 0.00910148 0.00867933 -0.000126929 0.0088992 1.57911e-07 270.626 
-0.75 -0.21 -4.50312 4.59697 0.00915696 0.00874609 -9.82735e-05 0.00897693 1.58615e-07 271.777 
-0.83 -0.19 -2.50712 5.55344 0.00910818 0.00871941 -7.39947e-05 0.00892859 1.57581e-07 272.087 
-0.81 -0.19 -3.27378 4.87071 0.00910742 0.00869372 -9.06763e-05 0.00891555 1.57707e-07 271.473 
-0.79 -0.19 -3.40284 4.98354 0.00913626 0.00870795 -9.81923e-05 0.00893529 1.5803e-07 271.519 
-0.77 -0.19 -3.94202 4.70943 0.00916482 0.00874093 -0.000115594 0.00897802 1.58925e-07 271.281 
-0.99 -0.33 0.397066 2.76079 0.00908564 0.00874448 -7.17972e-05 0.00892078 1.57669e-07 271.699 
-0.97 -0.33 0.0331197 2.54376 0.00911214 0.00875853 -9.38244e-05 0.00895052 1.57909e-07 272.191 
-0.91 -0.33 -0.912074 2.3754 0.00915501 0.00873873 -7.09655e-05 0.00893761 1.57698e-07 272.161 
-0.99 -0.31 -0.106882 2.81342 0.00911894 0.00875046 -7.51414e-05 0.00895356 1.58199e-07 271.783 
-0.97 -0.31 0.00410816 2.39158 0.0091085 0.00876139 -7.76621e-05 0.00895607 1.58156e-07 271.933 
-0.87 -0.33 -2.45944 2.26434 0.00916142 0.00879823 -7.53491e-05 0.00897786 1.59048e-07 271.066 
-0.95 -0.31 -0.634831 3.02251 0.0091003 0.00870469 -9.24819e-05 0.0089238 1.57731e-07 271.683 
-0.85 -0.33 -2.48424 2.37686 0.00915012 0.0087373 -6.77296e-05 0.00896929 1.58291e-07 272.102 
-0.93 -0.31 -0.91418 3.00662 0.00912565 0.00870588 -9.6584e-05 0.00890397 1.57295e-07 271.831 
-0.91 -0.31 -1.44009 2.93798 0.00915111 0.00873789 -4.53865e-05 0.00894058 1.57863e-07 271.967 
-0.99 -0.29 0.0161175 2.80233 0.00903223 0.0087359 -0.000108308 0.0089062 1.57524e-07 271.505 
-0.81 -0.33 -3.01565 3.16081 0.00916058 0.00871907 -4.25687e-05 0.00896485 1.57802e-07 272.81 
-0.89 -0.31 -1.31254 3.35195 0.00915075 0.00873765 -6.70368e-05 0.00895119 1.58144e-07 271.806 
-0.97 -0.29 -0.25838 3.21387 0.00908329 0.00874723 -9.44384e-05 0.00891602 1.5765e-07 271.585 
-0.87 -0.31 -1.82215 3.20454 0.00914173 0.00877988 -6.82901e-05 0.00896484 1.58434e-07 271.721 
-0.95 -0.29 -0.674909 2.9649 0.00910162 0.00870215 -7.81031e-05 0.00891031 1.57247e-07 272.107 
-0.85 -0.31 -3.01235 2.40366 0.00912559 0.00873017 -5.84071e-05 0.0089356 1.57905e-07 271.743 
-0.93 -0.29 -1.24025 3.39135 0.00909503 0.00872167 -8.75294e-05 0.00890903 1.57486e-07 271.656 
-0.83 -0.31 -3.13172 3.10359 0.00913506 0.00871124 -6.21389e-05 0.00893514 1.57467e-07 272.484 
-0.91 -0.29 -1.46314 3.52218 0.00909095 0.00869329 -9.42139e-05 0.00889892 1.57246e-07 271.762 
-0.99 -0.27 0.139717 2.98096 0.00908054 0.00872886 -0.000111898 0.00892624 1.57459e-07 272.226 
-0.81 -0.31 -3.19178 3.41387 0.009144 0.00871143 -5.4611e-05 0.00894527 1.57611e-07 272.544 
-0.89 -0.29 -2.04269 3.69118 0.00913058 0.00874077 -7.0915e-05 0.00892364 1.58043e-07 271.142 
-0.97 -0.27 -0.612815 3.85547 0.00904427 0.00870738 -9.76012e-05 0.00889828 1.57099e-07 271.996 
-0.79 -0.31 -3.42409 2.85688 0.00915897 0.00875185 -5.4231e-05 0.00895928 1.5855e-07 271.355 
-0.87 -0.29 -2.24187 3.72764 0.00912953 0.00876498 -4.64774e-05 0.00894556 1.57997e-07 271.887 
-0.95 -0.27 -0.818369 3.3598 0.00907572 0.008712 -0.000100364 0.00889297 1.57077e-07 271.871 
-0.77 -0.31 -3.96801 2.58395 0.00917689 0.00874715 -4.52256e-05 0.00895935 1.59105e-07 270.411 
-0.85 -0.29 -2.67145 3.28094 0.00916794 0.00875038 -5.9196e-05 0.00896808 1.58458e-07 271.778 
-0.93 -0.27 -1.05915 3.32219 0.00909364 0.00871581 -9.53898e-05 0.0089047 1.57169e-07 272.072 
-0.95 -0.33 -0.114849 2.48537 0.00913415 0.00870204 -7.24145e-05 0.00892549 1.58263e-07 270.821 
-0.93 -0.33 -0.63725 2.6922 0.00914097 0.00873413 -5.89335e-05 0.00894331 1.57863e-07 272.05 
-0.89 -0.33 -2.007 2.94261 0.00913859 0.00873007 -5.53021e-05 0.00893399 1.58053e-07 271.439 
-0.83 -0.33 -2.71749 2.73252 0.00915097 0.00872981 -4.98448e-05 0.00897068 1.58553e-07 271.694 
-0.75 -0.31 -4.56887 3.03923 0.00917513 0.00874225 -3.85238e-05 0.00897177 1.58408e-07 271.977 
-0.75 -0.27 -4.31759 4.18059 0.00918022 0.00876223 -5.89658e-05 0.00896403 1.58358e-07 271.827 
-0.75 -0.25 -4.67683 3.95786 0.00919719 0.00876895 -6.36665e-05 0.00897682 1.58519e-07 271.939 
-0.75 -0.19 -4.33551 4.93344 0.00915764 0.00872588 -0.000118327 0.0089705 1.5874e-07 271.369 
-0.79 -0.33 -3.49726 2.81091 0.00915462 0.00875236 -2.63899e-05 0.00895577 1.58218e-07 271.817 
-0.75 -0.33 -3.83949 2.88583 0.00918181 0.00876194 -2.61736e-05 0.00897689 1.58472e-07 272.022 
-0.81 -0.17 -3.28746 5.68859 0.00914464 0.00871407 -0.00010107 0.00892114 1.58047e-07 271.059 
-0.79 -0.17 -4.52546 5.03825 0.00913698 0.00874238 -0.000122524 0.00895078 1.58191e-07 271.712 
-0.75 -0.17 -4.63256 5.54148 0.00916078 0.00871833 -0.000120133 0.00895014 1.58092e-07 271.864 
-0.73 -0.31 -4.49958 3.47855 0.00916942 0.00880605 -5.19237e-05 0.00900469 1.58867e-07 272.185 
-0.73 -0.29 -5.08383 2.83009 0.0091888 0.00880909 -4.84526e-05 0.00901652 1.59349e-07 271.718 
-0.73 -0.27 -4.987 2.67023 0.0091822 0.00879778 -6.61062e-05 0.00901048 1.58672e-07 272.696 
-0.73 -0.25 -4.48629 3.28083 0.0092204 0.00879138 -6.60357e-05 0.00901963 1.5919e-07 272.084 
-0.73 -0.23 -4.70155 3.77964 0.00918759 0.00877806 -7.48605e-05 0.008993 1.58809e-07 271.932 
-0.73 -0.21 -5.24014 3.85167 0.00918216 0.00876673 -8.5465e-05 0.00897275 1.58138e-07 272.47 
-0.73 -0.19 -4.54553 4.87827 0.00915581 0.00876063 -8.3378e-05 0.00897633 1.58477e-07 271.997 
-0.79 -0.05 -3.11261 7.75524 0.00904429 0.00870495 -0.000142626 0.00886225 1.57004e-07 271.059 
-0.87 -0.03 -2.93818 8.56845 0.00900069 0.00859103 -0.000182806 0.00881952 1.55735e-07 271.95 
-0.83 -0.05 -3.33851 7.77302 0.00901444 0.00865398 -0.000141802 0.00887472 1.57071e-07 271.325 
-0.91 -0.03 -1.91875 8.55755 0.00899471 0.00862083 -0.000193654 0.00882454 1.55777e-07 272.031 
-0.81 -0.05 -2.87383 7.95154 0.00904109 0.00868154 -0.000133859 0.00887973 1.57181e-07 271.287 
-0.89 -0.03 -2.3534 8.55783 0.00899799 0.00864576 -0.000176433 0.00884836 1.56215e-07 272.001 
-0.77 -0.05 -3.44012 6.86269 0.00907237 0.00876476 -0.000128654 0.00893258 1.57829e-07 271.782 
-0.85 -0.03 -2.69753 8.17075 0.00899191 0.00863422 -0.000162284 0.00883042 1.56313e-07 271.279 
-0.75 -0.05 -3.61347 6.18551 0.00906763 0.0087516 -0.000172958 0.00892242 1.57689e-07 271.714 
-0.83 -0.03 -2.38297 7.96823 0.00901246 0.00865163 -0.000157872 0.00884499 1.56661e-07 271.124 
-0.81 -0.03 -3.38971 8.05239 0.00900709 0.00867039 -0.000152454 0.00885391 1.56846e-07 271.077 
-0.79 -0.03 -3.20677 8.29231 0.00905541 0.00871249 -0.000157911 0.00890328 1.57597e-07 271.289 
-0.77 -0.03 -3.35565 6.63896 0.0090574 0.00875521 -0.000158406 0.00892237 1.57886e-07 271.373 
-0.95 -0.17 -0.556138 4.79303 0.00907579 0.00871168 -0.000146125 0.00889632 1.5761e-07 271.055 
-0.99 -0.15 0.0481635 4.38419 0.00908634 0.00871758 -0.000172682 0.00891448 1.57548e-07 271.716 
-0.89 -0.17 -1.407 5.69621 0.00911826 0.00869519 -0.000129407 0.00891382 1.57359e-07 272.021 
-0.97 -0.15 -0.576923 5.05382 0.00910112 0.00867395 -0.000160123 0.00890004 1.5726e-07 271.771 
-0.95 -0.15 -1.22615 5.16999 0.0090946 0.00870944 -0.000167606 0.0089253 1.57793e-07 271.622 
-0.93 -0.15 -1.62051 5.3583 0.00907685 0.00868965 -0.000147001 0.0089109 1.5753e-07 271.638 
-0.83 -0.17 -2.95622 5.77231 0.00910924 0.0087091 -8.70129e-05 0.00891366 1.57713e-07 271.406 
-0.91 -0.15 -1.58429 5.97838 0.00909667 0.00869596 -0.000152931 0.0089031 1.57701e-07 271.104 
-0.99 -0.13 -0.502291 4.66019 0.0090601 0.00870924 -0.000176926 0.0089085 1.57677e-07 271.311 
-0.89 -0.15 -1.58773 5.97622 0.00911324 0.00867208 -0.000125471 0.00891553 1.57692e-07 271.498 
-0.97 -0.13 -0.859897 5.62758 0.00908408 0.0086686 -0.000157117 0.00889366 1.57225e-07 271.637 
-0.87 -0.15 -1.89041 6.63899 0.0091214 0.00870224 -0.000107858 0.00894737 1.57919e-07 272.077 
-0.95 -0.13 -1.09439 5.91883 0.00910406 0.00870033 -0.000174894 0.00891221 1.57393e-07 271.914 
-0.77 -0.17 -4.57747 5.19889 0.00913601 0.00871958 -0.00011437 0.00894412 1.58184e-07 271.523 
-0.85 -0.15 -2.543 6.32607 0.00909765 0.0086397 -0.00011219 0.00888259 1.5707e-07 271.566 
-0.93 -0.13 -1.44584 5.84374 0.00911204 0.00868506 -0.000150191 0.00891269 1.57429e-07 271.865 
-0.83 -0.15 -3.11897 5.74796 0.00912391 0.00871422 -0.000120939 0.0089308 1.5818e-07 271.124 
-0.91 -0.13 -1.92055 5.97198 0.00910953 0.00869121 -0.000167054 0.00892086 1.57888e-07 271.324 
-0.99 -0.11 -0.176883 5.37128 0.00907065 0.00868584 -0.00017612 0.00890489 1.57186e-07 272.048 
-0.81 -0.15 -3.56426 6.3775 0.00912761 0.00872275 -0.000121428 0.00892825 1.57926e-07 271.483 
-0.89 -0.13 -2.65092 6.08429 0.00910878 0.00865244 -0.000138403 0.00890849 1.57971e-07 270.805 
-0.97 -0.11 -0.478655 5.75503 0.00905946 0.00868789 -0.000197507 0.00890669 1.57572e-07 271.436 
-0.79 -0.15 -4.12093 5.2411 0.00915298 0.00875914 -0.000121715 0.00895244 1.5812e-07 271.884 
-0.87 -0.13 -2.61155 6.89058 0.00912281 0.00866071 -0.000120972 0.0089267 1.57909e-07 271.466 
-0.95 -0.11 -0.705236 6.10089 0.00905698 0.00867611 -0.000177012 0.00889191 1.571e-07 271.8 
-0.77 -0.15 -4.32076 4.99273 0.00916349 0.00871821 -0.000135294 0.00894859 1.58383e-07 271.317 
-0.85 -0.13 -2.5122 6.78858 0.00914656 0.00867557 -0.00010583 0.00891529 1.57971e-07 271.013 
-0.93 -0.11 -0.946227 6.46276 0.00907893 0.00869131 -0.000170988 0.00891901 1.57963e-07 271.139 
-0.75 -0.15 -4.17328 5.56978 0.00912349 0.00870138 -0.00011195 0.00893097 1.58327e-07 270.879 
-0.83 -0.13 -2.55148 6.0925 0.00915674 0.00869131 -0.000136097 0.00894884 1.58017e-07 271.953 
-0.91 -0.11 -1.75656 6.79076 0.00906665 0.00868029 -0.000157501 0.00890794 1.5756e-07 271.494 
-0.99 -0.09 0.0705108 5.47776 0.00900928 0.00867469 -0.000212277 0.00885411 1.5639e-07 271.873 
-0.81 -0.13 -3.40506 7.11921 0.0091311 0.0087236 -0.000120461 0.00894303 1.58156e-07 271.537 
-0.89 -0.11 -2.53008 7.02466 0.00906783 0.00862742 -0.000144531 0.00886678 1.57153e-07 270.94 
-0.97 -0.09 -0.370762 6.48156 0.00904664 0.00868574 -0.000189607 0.00888968 1.5722e-07 271.525 
-0.79 -0.13 -3.32519 5.93178 0.00911934 0.00875754 -0.000122495 0.00893591 1.57776e-07 271.974 
-0.87 -0.11 -2.80916 6.66861 0.00906346 0.00863628 -0.000122316 0.00888809 1.57495e-07 271.003 
-0.95 -0.09 -0.567025 6.36707 0.0090611 0.00867722 -0.000189611 0.00889922 1.57199e-07 271.853 
-0.77 -0.13 -4.12784 5.32541 0.0090916 0.00869179 -0.000122878 0.008899 1.57348e-07 271.587 
-0.85 -0.11 -2.99908 6.479 0.00911748 0.0086974 -0.000145482 0.00891749 1.57866e-07 271.26 
-0.93 -0.09 -0.743336 6.68518 0.00905059 0.00866345 -0.000187774 0.00889175 1.57356e-07 271.352 
-0.83 -0.11 -3.5218 7.25268 0.00910677 0.00868188 -0.000134174 0.00891394 1.57637e-07 271.546 
-0.91 -0.09 -1.4086 7.27831 0.00905153 0.00866463 -0.000128356 0.0088954 1.57165e-07 271.794 
-0.99 -0.07 -0.647635 5.83196 0.00902188 0.00867552 -0.000198912 0.00885054 1.56738e-07 271.16 
-0.81 -0.11 -3.96306 6.37313 0.00913619 0.00871859 -0.000126017 0.00895489 1.57881e-07 272.371 
-0.89 -0.09 -1.63453 7.27718 0.00904359 0.00861098 -0.000143174 0.0088549 1.56984e-07 270.869 
-0.97 -0.07 -0.348112 6.3233 0.00900486 0.00865942 -0.00020895 0.00884501 1.56547e-07 271.321 
-0.79 -0.11 -3.65487 6.33897 0.00912332 0.00873529 -0.000113004 0.0089422 1.58377e-07 271.133 
-0.87 -0.09 -1.90677 7.36013 0.00908545 0.00867519 -0.000172602 0.00890327 1.5775e-07 271.025 
-0.95 -0.07 -0.61502 6.84309 0.00900766 0.00868688 -0.000183285 0.00885562 1.5657e-07 271.606 
-0.77 -0.11 -4.12386 6.32464 0.0091192 0.00870572 -0.000124695 0.0089355 1.57631e-07 272.213 
-0.85 -0.09 -2.47139 6.662 0.0090627 0.00865078 -0.00015977 0.00887165 1.57257e-07 270.91 
-0.93 -0.07 -1.63328 7.76099 0.00900622 0.00863609 -0.000166994 0.00885429 1.56461e-07 271.755 
-0.75 -0.11 -4.46909 5.70513 0.00911498 0.00873012 -0.000124757 0.00894545 1.58305e-07 271.355 
-0.83 -0.09 -3.06763 7.42382 0.00910616 0.00870604 -0.000144889 0.00892635 1.57836e-07 271.581 
-0.91 -0.07 -1.82601 7.26431 0.00901688 0.00863236 -0.000176799 0.00886908 1.56666e-07 271.853 
-0.99 -0.05 0.294902 6.18742 0.00895377 0.00862858 -0.000220075 0.00881506 1.55984e-07 271.379 
-0.81 -0.09 -3.13825 6.68378 0.00909412 0.00870521 -0.000136366 0.00891377 1.57825e-07 271.216 
-0.89 -0.07 -1.7564 7.66497 0.00905514 0.00865219 -0.000180558 0.008885 1.56985e-07 271.788 
-0.97 -0.05 -0.404342 6.41135 0.00897496 0.00868174 -0.000199786 0.00885137 1.56483e-07 271.627 
-0.79 -0.09 -4.04901 6.45139 0.00909523 0.00874463 -0.000114215 0.00891748 1.57863e-07 271.264 
-0.87 -0.07 -2.28665 7.62285 0.00905864 0.00865833 -0.000159994 0.00889738 1.57559e-07 271.175 
-0.95 -0.05 -0.324081 7.58834 0.00897796 0.00867056 -0.000204039 0.00885596 1.56577e-07 271.605 
-0.77 -0.09 -4.114 6.56535 0.00910274 0.00870616 -0.000117437 0.00892574 1.57876e-07 271.493 
-0.85 -0.07 -2.95386 7.7706 0.00905856 0.0086492 -0.000147242 0.00888525 1.56893e-07 271.955 
-0.93 -0.05 -0.748081 8.36861 0.00898039 0.00861534 -0.000181147 0.00882339 1.56098e-07 271.436 
-0.75 -0.09 -4.53532 6.29184 0.00910591 0.00873594 -0.000134097 0.00893722 1.58158e-07 271.357 
-0.83 -0.07 -2.85631 7.85932 0.00904724 0.00867537 -0.000150346 0.0088834 1.56962e-07 271.779 
-0.91 -0.05 -1.55529 8.1965 0.00899757 0.00864262 -0.000172677 0.00886646 1.5623e-07 272.532 
-0.99 -0.03 -0.378183 6.43979 0.00896143 0.00862386 -0.000213377 0.00880889 1.56048e-07 271.078 
-0.81 -0.07 -3.49813 7.60465 0.00903063 0.00869661 -0.000137387 0.00887958 1.57043e-07 271.521 
-0.89 -0.05 -2.12926 7.68146 0.00900849 0.00865421 -0.00018952 0.00885065 1.56442e-07 271.677 
-0.97 -0.03 -0.395917 7.16254 0.00894442 0.00865793 -0.000213732 0.00883176 1.56206e-07 271.506 