ITEM: TIMESTEP
1098000
ITEM: NUMBER OF CELLS
5000
ITEM: BOX BOUNDS ss ss pp
-1 1
-0.5 0.5
-0.5 0.5
ITEM: CELLS xc yc f_U[*] f_V[*] f_Tau[1] f_Tau[2] f_Tau[3] f_Press[*] f_Mrho[*] f_Ttra[*] 
-0.99 -0.49 -0.244623 0.299982 0.00899621 0.00875503 -2.86619e-05 0.00888828 1.56762e-07 272.275 
-0.97 -0.49 -0.613153 0.0676581 0.00899243 0.00875326 -3.18448e-05 0.0088854 1.56616e-07 272.439 
-0.95 -0.49 -0.722647 0.0482866 0.00899468 0.00875379 -3.06554e-05 0.00888279 1.56607e-07 272.375 
-0.93 -0.49 -0.928398 0.123072 0.00900127 0.00875192 -2.25748e-05 0.0088857 1.56735e-07 272.242 
-0.91 -0.49 -1.17599 0.0864499 0.00900239 0.00872768 -2.16296e-05 0.00887071 1.56507e-07 272.179 
-0.99 -0.47 -0.120214 0.554695 0.00902125 0.0087746 -1.94069e-05 0.00890666 1.57051e-07 272.336 
-0.89 -0.49 -1.52696 0.202425 0.00901524 0.00874282 -2.17006e-05 0.00888269 1.56743e-07 272.137 
-0.97 -0.47 -0.378372 0.372498 0.00902107 0.00875003 -3.2631e-05 0.00890078 1.56873e-07 272.465 
-0.87 -0.49 -1.69637 0.054507 0.00903471 0.00875741 -1.79406e-05 0.00889927 1.57003e-07 272.192 
-0.95 -0.47 -0.668449 0.298779 0.00902363 0.00875505 -3.26551e-05 0.00890009 1.56907e-07 272.385 
-0.85 -0.49 -1.97594 0.12546 0.00904004 0.00875444 -1.10803e-05 0.00890088 1.5693e-07 272.368 
-0.93 -0.47 -0.86666 0.304569 0.00902755 0.00874669 -3.22007e-05 0.00889444 1.56864e-07 272.286 
-0.83 -0.49 -2.09322 0.00538703 0.00904454 0.00876421 9.60407e-07 0.00890972 1.57157e-07 272.245 
-0.91 -0.47 -1.20975 0.525644 0.00903783 0.00873174 -2.87068e-05 0.00889228 1.56901e-07 272.155 
-0.99 -0.45 -0.130491 0.904449 0.00905064 0.00877524 -2.96229e-05 0.00892253 1.57308e-07 272.375 
-0.81 -0.49 -2.24711 0.202569 0.00905565 0.00877125 1.14947e-05 0.00892048 1.57353e-07 272.235 
-0.89 -0.47 -1.55372 0.449532 0.00904478 0.00874317 -3.21659e-05 0.00889414 1.56945e-07 272.137 
-0.97 -0.45 -0.416078 0.641465 0.00905252 0.00876044 -3.21601e-05 0.00892081 1.57299e-07 272.339 
-0.79 -0.49 -2.52303 0.0870639 0.0090648 0.00878046 1.52902e-05 0.00893158 1.57461e-07 272.386 
-0.87 -0.47 -1.89334 0.295763 0.00904734 0.00874698 -2.96294e-05 0.00890483 1.57123e-07 272.156 
-0.95 -0.45 -0.739159 0.574905 0.00905475 0.0087538 -3.52295e-05 0.00891567 1.5715e-07 272.439 
-0.77 -0.49 -2.59114 -0.0269472 0.00906778 0.00878828 2.39138e-05 0.00893604 1.57508e-07 272.442 
-0.85 -0.47 -1.97511 0.378873 0.00905459 0.00874675 -1.50765e-05 0.00891035 1.57146e-07 272.284 
-0.93 -0.45 -1.16994 0.568523 0.00906199 0.00874398 -4.11626e-05 0.00890975 1.57175e-07 272.214 
-0.83 -0.47 -2.37951 0.203257 0.00906422 0.0087552 -9.03023e-06 0.00891724 1.57282e-07 272.258 
-0.91 -0.45 -1.31274 0.732688 0.00906269 0.00873676 -3.683e-05 0.00889905 1.5709e-07 272.036 
-0.99 -0.43 -0.200457 1.1613 0.00905744 0.00877399 -3.61172e-05 0.00893075 1.57649e-07 272.036 
-0.81 -0.47 -2.59153 0.422363 0.00907336 0.00876237 -1.01062e-06 0.00892949 1.57454e-07 272.335 
-0.89 -0.45 -1.60927 0.819018 0.00907321 0.00873661 -3.70057e-05 0.0089053 1.57121e-07 272.173 
-0.97 -0.43 -0.464702 0.948619 0.00907162 0.00876647 -3.93866e-05 0.00893255 1.57604e-07 272.169 
-0.79 -0.47 -2.91821 0.364108 0.00908396 0.00877197 9.68865e-06 0.00894065 1.57672e-07 272.298 
-0.87 -0.45 -2.00822 0.619481 0.00907424 0.00874066 -2.39696e-05 0.0089106 1.57216e-07 272.17 
-0.95 -0.43 -0.803362 0.918816 0.00908093 0.00875467 -4.30241e-05 0.00892728 1.57524e-07 272.147 
-0.77 -0.47 -3.15317 0.0899814 0.00909559 0.00878098 1.20057e-05 0.00894715 1.57824e-07 272.235 
-0.85 -0.45 -2.34247 0.522809 0.00907812 0.00873859 -2.43932e-05 0.00891776 1.57396e-07 272.077 
-0.93 -0.43 -0.999176 0.935979 0.00908249 0.00874342 -3.79161e-05 0.00891731 1.57312e-07 272.208 
-0.75 -0.47 -3.27446 0.39941 0.00910525 0.00879269 1.83698e-05 0.00895157 1.57768e-07 272.465 
-0.83 -0.45 -2.53659 0.558435 0.00908918 0.00875373 -1.94794e-05 0.00892895 1.57577e-07 272.106 
-0.91 -0.43 -1.48812 1.0055 0.00908691 0.00873951 -4.14663e-05 0.00891537 1.57286e-07 272.195 
-0.99 -0.41 -0.13548 1.48785 0.00907796 0.00877829 -4.57898e-05 0.00893857 1.57743e-07 272.112 
-0.81 -0.45 -2.88371 0.76081 0.00909377 0.00874543 -9.82981e-06 0.00893064 1.57599e-07 272.12 
-0.89 -0.43 -1.73933 1.12913 0.00908355 0.0087291 -3.92395e-05 0.00891208 1.573e-07 272.07 
-0.97 -0.41 -0.413986 1.2296 0.00908267 0.00876684 -4.90848e-05 0.0089332 1.57575e-07 272.239 
-0.79 -0.45 -2.98348 0.5171 0.0091015 0.00876689 1.79981e-06 0.00894308 1.57802e-07 272.148 
-0.87 -0.43 -2.03593 0.971192 0.00908863 0.00873331 -3.72502e-05 0.00891874 1.5735e-07 272.187 
-0.95 -0.41 -0.625084 1.24081 0.00908643 0.00875816 -4.60802e-05 0.00893334 1.57534e-07 272.313 
-0.77 -0.45 -3.37734 0.430642 0.00910917 0.00877799 5.8911e-06 0.00894782 1.57845e-07 272.217 
-0.85 -0.43 -2.36864 0.836542 0.00910106 0.0087385 -3.08531e-05 0.00892878 1.57613e-07 272.038 
-0.93 -0.41 -1.19305 1.32471 0.0090884 0.00873613 -4.51996e-05 0.00892527 1.57472e-07 272.176 
-0.75 -0.45 -3.6116 0.491136 0.00911393 0.00878463 9.15635e-06 0.00895533 1.58063e-07 272.072 
-0.83 -0.43 -2.68151 0.843282 0.00910418 0.00874497 -2.05811e-05 0.00893237 1.57597e-07 272.176 
-0.91 -0.41 -1.37586 1.33066 0.00909677 0.00873937 -4.19937e-05 0.00892692 1.57562e-07 272.071 
-0.99 -0.39 -0.155526 1.77478 0.00907792 0.00878081 -5.40446e-05 0.00894028 1.57836e-07 272.004 
-0.81 -0.43 -3.00984 0.962031 0.00911225 0.00873541 -1.7164e-05 0.00893464 1.5767e-07 272.119 
-0.89 -0.41 -1.70506 1.4341 0.00909842 0.00873022 -4.49727e-05 0.00892538 1.5744e-07 272.235 
-0.97 -0.39 -0.52555 1.50229 0.00909108 0.00876749 -5.30768e-05 0.00893587 1.57638e-07 272.212 
-0.79 -0.43 -3.37229 0.793538 0.00912119 0.00875815 -8.31383e-06 0.00894855 1.5792e-07 272.11 
-0.87 -0.41 -2.09407 1.35093 0.00910466 0.00873136 -3.7646e-05 0.00892965 1.57473e-07 272.307 
-0.95 -0.39 -0.88657 1.53974 0.00909696 0.00875513 -5.25615e-05 0.00893268 1.57491e-07 272.368 
-0.77 -0.43 -3.60843 0.781165 0.00912838 0.00877571 1.20104e-06 0.00896057 1.58131e-07 272.113 
-0.85 -0.41 -2.58504 1.12129 0.00910379 0.00873288 -3.60969e-05 0.00892804 1.57593e-07 272.05 
-0.93 -0.39 -0.915652 1.59288 0.0091048 0.00873717 -4.80582e-05 0.00893176 1.57571e-07 272.202 
-0.83 -0.41 -2.81958 1.18709 0.00911235 0.00873329 -3.10857e-05 0.00892686 1.57566e-07 272.061 
-0.91 -0.39 -1.35907 1.74736 0.00911041 0.00873673 -4.7454e-05 0.00893618 1.57679e-07 272.151 
-0.99 -0.37 -0.00828167 2.0452 0.00908695 0.00878451 -6.4039e-05 0.00894625 1.57935e-07 272.016 
-0.81 -0.41 -3.03676 1.28925 0.00911869 0.00872958 -2.30758e-05 0.00893192 1.57716e-07 271.957 
-0.89 -0.39 -1.67451 1.7165 0.0091157 0.00873334 -4.67231e-05 0.00893859 1.57679e-07 272.223 
-0.97 -0.37 -0.421358 1.94903 0.00909483 0.00876251 -6.20657e-05 0.00893809 1.57777e-07 272.039 
-0.79 -0.41 -3.38232 1.08583 0.00913449 0.00875237 -2.03606e-05 0.00895274 1.58011e-07 272.081 
-0.87 -0.39 -1.95596 1.721 0.00911809 0.00872155 -4.36078e-05 0.00892982 1.57664e-07 271.982 
-0.95 -0.37 -0.812376 1.80184 0.00910194 0.00875039 -5.70202e-05 0.0089344 1.57699e-07 272.061 
-0.77 -0.41 -3.74957 1.11264 0.00914404 0.00877403 -1.3983e-05 0.00897025 1.58283e-07 272.145 
-0.85 -0.39 -2.34304 1.61424 0.00912965 0.00873437 -4.21993e-05 0.00894186 1.57861e-07 272.009 
-0.93 -0.37 -1.25809 1.91474 0.00910802 0.0087367 -5.75225e-05 0.00893431 1.57711e-07 272.039 
-0.75 -0.41 -4.00377 0.945756 0.00915485 0.00877791 -9.30901e-06 0.00897558 1.58341e-07 272.207 
-0.83 -0.39 -2.73837 1.49161 0.0091306 0.00872205 -3.86613e-05 0.00893283 1.57699e-07 272.014 
-0.91 -0.37 -1.4645 1.96826 0.00911733 0.00873338 -5.90007e-05 0.00893939 1.577e-07 272.211 
-0.99 -0.35 -0.226566 2.25763 0.00909522 0.0087824 -7.41313e-05 0.00895276 1.58207e-07 271.745 
-0.81 -0.39 -3.12883 1.51801 0.00913699 0.00873147 -3.46255e-05 0.00894484 1.57782e-07 272.237 
-0.89 -0.37 -1.73649 2.02124 0.0091258 0.00873054 -5.08835e-05 0.00893776 1.57845e-07 271.913 
-0.97 -0.35 -0.434977 2.36084 0.00910234 0.00875564 -6.99778e-05 0.0089423 1.57879e-07 271.991 
-0.79 -0.39 -3.39464 1.45472 0.0091399 0.00874061 -2.80629e-05 0.0089506 1.58042e-07 271.964 
-0.87 -0.37 -2.12358 2.12374 0.00912887 0.00872081 -5.03164e-05 0.00893587 1.57734e-07 272.046 
-0.95 -0.35 -0.817154 2.14108 0.00911523 0.00874526 -6.59864e-05 0.00893902 1.57795e-07 272.037 
-0.77 -0.39 -3.80003 1.41361 0.00915085 0.00877203 -2.12875e-05 0.00897171 1.58347e-07 272.08 
-0.85 -0.37 -2.515 2.02673 0.00912995 0.00872863 -4.92977e-05 0.00893679 1.57831e-07 271.907 
-0.93 -0.35 -1.14686 2.23394 0.00912411 0.00873862 -6.37131e-05 0.00894078 1.57824e-07 272.04 
-0.83 -0.37 -2.95945 1.79163 0.00913531 0.00871495 -4.00012e-05 0.00893163 1.57739e-07 271.908 
-0.91 -0.35 -1.50095 2.34893 0.00912497 0.00873328 -5.99042e-05 0.00893779 1.57712e-07 272.142 
-0.81 -0.37 -3.20707 1.79664 0.00914333 0.00872933 -3.55023e-05 0.00894614 1.57883e-07 272.102 
-0.89 -0.35 -1.89845 2.43893 0.00912404 0.0087221 -5.53155e-05 0.00893242 1.57725e-07 271.955 
-0.79 -0.37 -3.62976 1.88249 0.00914754 0.00873562 -3.42146e-05 0.00895667 1.58149e-07 271.964 
-0.87 -0.35 -2.2862 2.39619 0.00912967 0.00872072 -5.54043e-05 0.00893533 1.57776e-07 271.958 
-0.77 -0.37 -3.92431 1.94086 0.00915444 0.00876651 -3.00999e-05 0.00896836 1.58156e-07 272.307 
-0.85 -0.35 -2.59529 2.44597 0.00913891 0.00871977 -4.82506e-05 0.0089392 1.5787e-07 271.912 
-0.83 -0.35 -2.98982 2.18314 0.00914227 0.00871466 -4.80018e-05 0.0089369 1.57838e-07 271.898 
-0.81 -0.35 -3.41548 2.16239 0.00914784 0.00872637 -4.77744e-05 0.00894943 1.57982e-07 272.031 
-0.79 -0.35 -3.72045 2.22359 0.00916067 0.00873352 -4.28825e-05 0.00895777 1.582e-07 271.91 
-0.77 -0.35 -3.91445 2.19399 0.00916993 0.00875493 -3.5424e-05 0.00897473 1.58291e-07 272.267 
-0.75 -0.35 -4.17987 2.17424 0.00918066 0.00876789 -2.95073e-05 0.00898403 1.58565e-07 272.078 
-0.75 -0.49 -2.80959 0.175769 0.00907715 0.00879277 2.82768e-05 0.00893862 1.57591e-07 272.376 
-0.75 -0.43 -3.84624 0.655685 0.00913807 0.00878073 -3.03401e-06 0.00896878 1.58194e-07 272.253 
-0.75 -0.39 -4.3816 1.36351 0.00915253 0.00877213 -1.79868e-05 0.00897354 1.58377e-07 272.083 
-0.75 -0.37 -4.27227 1.80078 0.00916109 0.00876967 -1.71924e-05 0.00897422 1.58357e-07 272.138 
-0.77 -0.33 -3.91504 2.41838 0.00916925 0.00874771 -4.74232e-05 0.00896766 1.58449e-07 271.781 
-0.73 -0.49 -3.06687 0.147486 0.00908402 0.00881064 2.53621e-05 0.00895465 1.57871e-07 272.381 
-0.73 -0.47 -3.39145 0.24723 0.00911176 0.00880364 2.30886e-05 0.00896803 1.58126e-07 272.347 
-0.73 -0.45 -3.77489 0.460826 0.00912684 0.00880318 1.35386e-05 0.00897277 1.58283e-07 272.221 
-0.73 -0.43 -4.20407 0.881469 0.00914662 0.00880216 1.37402e-06 0.00898275 1.58429e-07 272.273 
-0.73 -0.41 -4.34336 1.15053 0.00916246 0.00879838 -6.47438e-06 0.00898625 1.58618e-07 272.054 
-0.73 -0.39 -4.54187 1.44099 0.00915766 0.00879138 -7.24078e-06 0.00897763 1.5849e-07 272.014 
-0.73 -0.37 -4.8183 1.68011 0.00916639 0.00877924 -2.18491e-05 0.00897654 1.58524e-07 271.922 
-0.73 -0.35 -4.47305 1.99838 0.00918506 0.00878297 -2.61857e-05 0.00898757 1.58664e-07 272.016 
-0.81 -0.29 -3.3632 3.34106 0.00916143 0.00872034 -6.43476e-05 0.00894715 1.58102e-07 271.755 
-0.89 -0.27 -1.92112 3.84252 0.00912683 0.00869931 -8.78125e-05 0.0089295 1.57722e-07 271.872 
-0.97 -0.25 -0.476964 3.76543 0.00908906 0.00873037 -0.000110727 0.00892116 1.57752e-07 271.567 
-0.83 -0.29 -2.97459 3.32586 0.00915511 0.00871674 -6.82039e-05 0.00894564 1.57852e-07 272.14 
-0.91 -0.27 -1.42827 3.95481 0.00912535 0.00870747 -9.04646e-05 0.00893069 1.57766e-07 271.833 
-0.99 -0.25 -0.150746 3.73514 0.00908084 0.00875905 -0.000119879 0.00893465 1.57967e-07 271.608 
-0.79 -0.29 -3.66262 3.21072 0.00916717 0.00872443 -6.19777e-05 0.00895225 1.58156e-07 271.817 
-0.87 -0.27 -2.34694 3.93887 0.00913584 0.00870319 -7.90598e-05 0.0089364 1.57861e-07 271.842 
-0.95 -0.25 -0.840106 3.92281 0.00910472 0.00872024 -0.000104923 0.00892896 1.57795e-07 271.731 
-0.77 -0.29 -4.04464 3.22746 0.00917802 0.00873695 -5.81091e-05 0.00896591 1.58335e-07 271.924 
-0.85 -0.27 -2.61084 3.78387 0.00914953 0.00871558 -7.59781e-05 0.00894572 1.57972e-07 271.934 
-0.93 -0.25 -1.10618 4.08541 0.00911238 0.00871231 -0.000102057 0.00892722 1.57701e-07 271.839 
-0.75 -0.29 -4.55596 3.16693 0.0091878 0.00875888 -5.73287e-05 0.00898469 1.58614e-07 272.015 
-0.83 -0.27 -3.06416 3.69698 0.00915667 0.00871779 -7.22575e-05 0.00894852 1.57961e-07 272.04 
-0.91 -0.25 -1.42688 4.24046 0.00911758 0.0086982 -9.71509e-05 0.00892236 1.57646e-07 271.787 
-0.99 -0.23 -0.0543936 3.95412 0.00907356 0.00875601 -0.000126913 0.00892727 1.57816e-07 271.643 
-0.81 -0.27 -3.4469 3.69698 0.00916067 0.0087163 -7.52453e-05 0.00894631 1.58028e-07 271.856 
-0.89 -0.25 -1.73814 4.22816 0.00912956 0.008699 -9.09343e-05 0.00893417 1.57742e-07 271.98 
-0.97 -0.23 -0.30788 4.11405 0.0090861 0.00873046 -0.000121443 0.00892171 1.57707e-07 271.662 
-0.79 -0.27 -3.90322 3.56709 0.00917458 0.00871996 -6.94802e-05 0.00895105 1.58224e-07 271.664 
-0.87 -0.25 -2.0571 4.29956 0.00913764 0.00869796 -9.20388e-05 0.00893861 1.57922e-07 271.805 
-0.95 -0.23 -0.709148 4.34389 0.00909111 0.0087109 -0.000118994 0.00891324 1.57474e-07 271.805 
-0.77 -0.27 -4.29102 3.61501 0.00917692 0.00873774 -6.49412e-05 0.00896973 1.5848e-07 271.79 
-0.85 -0.25 -2.54694 4.19084 0.00914878 0.00871223 -8.8657e-05 0.00894617 1.57945e-07 271.996 
-0.93 -0.23 -1.17032 4.41841 0.00910928 0.00870796 -0.000110815 0.00892239 1.57547e-07 271.958 
-0.83 -0.25 -2.96845 4.13512 0.00915601 0.00870654 -8.1165e-05 0.0089379 1.57931e-07 271.769 
-0.91 -0.23 -1.52396 4.44487 0.00911928 0.00869183 -0.000102422 0.00892268 1.5756e-07 271.945 
-0.99 -0.21 -0.0627163 4.1348 0.00908524 0.00874536 -0.000136044 0.00892676 1.57767e-07 271.712 
-0.81 -0.25 -3.3026 4.09087 0.00916367 0.00872516 -7.63114e-05 0.00895273 1.58108e-07 271.915 
-0.89 -0.23 -1.88654 4.75033 0.00912592 0.00869786 -0.000103916 0.00892593 1.57613e-07 271.952 
-0.97 -0.21 -0.322865 4.45676 0.0090954 0.00872044 -0.000130965 0.0089167 1.57655e-07 271.598 
-0.79 -0.25 -3.76902 4.13065 0.00915853 0.00871018 -7.78876e-05 0.00894564 1.58134e-07 271.654 
-0.87 -0.23 -2.36913 4.61753 0.00913942 0.00869365 -0.000104122 0.0089289 1.57781e-07 271.752 
-0.95 -0.21 -0.667725 4.70545 0.00910245 0.0087114 -0.00012557 0.00892002 1.57671e-07 271.671 
-0.77 -0.25 -4.18646 3.84376 0.0091712 0.00873654 -7.66645e-05 0.00895982 1.58307e-07 271.788 
-0.85 -0.23 -2.64632 4.59642 0.00914358 0.00870655 -9.2e-05 0.00893456 1.57811e-07 271.873 
-0.93 -0.21 -1.13613 4.92787 0.00910504 0.00869571 -0.000122637 0.00891651 1.57656e-07 271.592 
-0.83 -0.23 -3.00157 4.58355 0.00914209 0.00869891 -8.70624e-05 0.00893237 1.57828e-07 271.778 
-0.91 -0.21 -1.52879 4.77029 0.00911708 0.00868913 -0.000113555 0.0089183 1.57622e-07 271.703 
-0.99 -0.19 -0.202804 4.40865 0.00907564 0.0087357 -0.000150744 0.00891791 1.57581e-07 271.763 
-0.81 -0.23 -3.5225 4.44754 0.0091518 0.0087166 -8.40025e-05 0.00894658 1.57957e-07 271.986 
-0.89 -0.21 -1.87143 5.13877 0.00913259 0.00870036 -0.000110757 0.0089318 1.57729e-07 271.93 
-0.97 -0.19 -0.512602 4.74566 0.00908484 0.00870996 -0.00013816 0.00890653 1.57454e-07 271.634 
-0.79 -0.23 -3.72227 4.47611 0.00916481 0.00871989 -7.97061e-05 0.00895421 1.58114e-07 271.949 
-0.87 -0.21 -2.18878 5.04259 0.00913242 0.00868102 -0.000107267 0.00892218 1.57737e-07 271.624 
-0.95 -0.19 -0.810882 5.03425 0.00909966 0.00871236 -0.000135479 0.00891673 1.57604e-07 271.686 
-0.77 -0.23 -3.99322 4.2238 0.00916458 0.00873062 -8.68339e-05 0.0089526 1.58197e-07 271.757 
-0.85 -0.21 -2.72009 4.99464 0.00913902 0.00869677 -9.72213e-05 0.00892992 1.57762e-07 271.816 
-0.93 -0.19 -0.93065 5.29516 0.00910848 0.00868787 -0.000127584 0.00891528 1.57649e-07 271.565 
-0.75 -0.23 -4.48905 4.07025 0.00917393 0.00874541 -8.19331e-05 0.00896799 1.58465e-07 271.764 
-0.83 -0.21 -3.10909 4.82566 0.00915417 0.00870284 -9.42268e-05 0.00894069 1.57847e-07 271.997 
-0.91 -0.19 -1.34794 5.28986 0.00911129 0.00868353 -0.000123434 0.00891043 1.57495e-07 271.683 
-0.81 -0.21 -3.30162 4.782 0.00915426 0.0087073 -8.95194e-05 0.00894852 1.5813e-07 271.749 
-0.89 -0.19 -1.91716 5.47747 0.0091162 0.008692 -0.0001143 0.00892012 1.57588e-07 271.817 
-0.79 -0.21 -3.6984 4.79453 0.00915563 0.00871998 -8.85705e-05 0.00895406 1.58225e-07 271.754 
-0.87 -0.19 -2.40256 5.45576 0.00911986 0.00868393 -0.000107858 0.00891845 1.5768e-07 271.609 
-0.77 -0.21 -4.14828 4.65693 0.00916522 0.00873399 -9.01327e-05 0.00896107 1.58353e-07 271.747 
-0.85 -0.19 -2.66413 5.37076 0.00912174 0.0086853 -0.000109263 0.00891753 1.57618e-07 271.687 
-0.75 -0.21 -4.56227 4.57133 0.00916803 0.00874319 -9.27445e-05 0.00896555 1.58374e-07 271.847 
-0.83 -0.19 -2.97461 5.1621 0.00912071 0.00869935 -0.000103288 0.00892617 1.57761e-07 271.703 
-0.81 -0.19 -3.35783 5.18823 0.0091372 0.00869892 -9.69064e-05 0.00893146 1.57862e-07 271.691 
-0.79 -0.19 -3.80648 5.13314 0.00915413 0.00872789 -9.82118e-05 0.00895657 1.58229e-07 271.823 
-0.77 -0.19 -4.07597 5.11779 0.0091658 0.00873287 -0.000100226 0.0089621 1.58354e-07 271.776 
-0.99 -0.33 -0.0656833 2.46985 0.00909773 0.00877843 -8.34696e-05 0.00894684 1.57969e-07 271.975 
-0.97 -0.33 -0.352602 2.66331 0.00911214 0.00875517 -8.22245e-05 0.00894609 1.57935e-07 272.01 
-0.91 -0.33 -1.54295 2.76803 0.0091374 0.00872342 -6.47641e-05 0.00893859 1.5768e-07 272.221 
-0.99 -0.31 -0.210532 2.79451 0.00909567 0.00877203 -9.59122e-05 0.00894085 1.57926e-07 271.866 
-0.97 -0.31 -0.430094 2.90617 0.00910013 0.00875332 -8.96758e-05 0.00893592 1.57946e-07 271.682 
-0.87 -0.33 -2.27175 2.8112 0.0091509 0.00872471 -5.64219e-05 0.00894997 1.57991e-07 272.032 
-0.95 -0.31 -0.788105 3.06317 0.00910639 0.00873071 -8.45935e-05 0.00892937 1.57688e-07 271.927 
-0.85 -0.33 -2.5517 2.74198 0.00914601 0.00871288 -5.47058e-05 0.00893834 1.57733e-07 272.122 
-0.93 -0.31 -1.1787 2.96462 0.00911965 0.0087308 -8.45596e-05 0.0089385 1.5774e-07 272.116 
-0.91 -0.31 -1.55184 3.04063 0.00912988 0.00871598 -7.09745e-05 0.00894009 1.57715e-07 272.208 
-0.99 -0.29 -0.14563 3.09559 0.00908906 0.00876992 -0.000103175 0.008942 1.57993e-07 271.786 
-0.81 -0.33 -3.35222 2.54241 0.00915754 0.00872618 -5.20691e-05 0.00895001 1.58092e-07 271.859 
-0.89 -0.31 -1.82542 3.2095 0.0091373 0.00871204 -6.50224e-05 0.00893775 1.5784e-07 271.919 
-0.97 -0.29 -0.417773 3.13542 0.009102 0.00874465 -9.83757e-05 0.00893261 1.57807e-07 271.821 
-0.87 -0.31 -2.27223 3.10386 0.00914411 0.00871787 -6.11582e-05 0.00894027 1.57895e-07 271.902 
-0.95 -0.29 -0.736675 3.44274 0.00911031 0.00872829 -9.35576e-05 0.00893111 1.57727e-07 271.913 
-0.85 -0.31 -2.60165 2.96844 0.0091536 0.00871481 -5.8592e-05 0.00894552 1.5797e-07 271.933 
-0.93 -0.29 -1.09281 3.30124 0.00911217 0.00872206 -8.76329e-05 0.00892783 1.57687e-07 271.881 
-0.83 -0.31 -2.89888 3.0063 0.00915867 0.00871822 -5.73288e-05 0.00895038 1.58008e-07 272.015 
-0.91 -0.29 -1.4307 3.47608 0.00911423 0.00870618 -8.21168e-05 0.00892036 1.57567e-07 271.861 
-0.99 -0.27 -0.126593 3.42669 0.00910125 0.00876319 -0.000108815 0.00894513 1.5815e-07 271.612 
-0.81 -0.31 -3.25692 2.96255 0.00916416 0.00872109 -5.92626e-05 0.00895748 1.5809e-07 272.089 
-0.89 -0.29 -1.78871 3.50091 0.00912536 0.00870767 -7.76181e-05 0.00892934 1.5766e-07 271.974 
-0.97 -0.27 -0.516067 3.44267 0.00910448 0.00874012 -0.000102417 0.00893778 1.57898e-07 271.821 
-0.79 -0.31 -3.73862 2.76854 0.0091684 0.00872966 -5.71211e-05 0.00895951 1.58253e-07 271.87 
-0.87 -0.29 -2.09657 3.54369 0.00913865 0.00871223 -6.6921e-05 0.00893813 1.57896e-07 271.835 
-0.95 -0.27 -0.676293 3.66123 0.00910693 0.00872331 -9.77459e-05 0.00892852 1.57656e-07 271.957 
-0.77 -0.31 -4.17539 2.86912 0.00917008 0.00873949 -5.09171e-05 0.00895791 1.58248e-07 271.831 
-0.85 -0.29 -2.60883 3.38452 0.00914566 0.00871362 -6.62299e-05 0.0089413 1.57906e-07 271.914 
-0.93 -0.27 -1.043 3.61967 0.00911357 0.00871467 -9.1874e-05 0.00892501 1.57524e-07 272.076 
-0.95 -0.33 -0.710791 2.57293 0.00911895 0.00873454 -7.76182e-05 0.00893916 1.57864e-07 271.922 
-0.93 -0.33 -1.1441 2.58516 0.00912909 0.00873783 -6.89835e-05 0.0089423 1.57821e-07 272.092 
-0.89 -0.33 -1.99962 2.78015 0.00914698 0.00871685 -5.98552e-05 0.00894175 1.57835e-07 272.05 
-0.83 -0.33 -2.91854 2.61126 0.00915006 0.00871398 -5.40166e-05 0.00894514 1.57984e-07 271.897 
-0.75 -0.31 -4.49131 2.75227 0.00917468 0.00875539 -4.91362e-05 0.00897632 1.58486e-07 271.98 
-0.75 -0.27 -4.52847 3.64245 0.0091874 0.00875385 -6.77592e-05 0.00898144 1.5863e-07 271.889 
-0.75 -0.25 -4.36239 3.74187 0.00917969 0.00875207 -7.14336e-05 0.00897287 1.58525e-07 271.809 
-0.75 -0.19 -4.47639 4.98829 0.00916651 0.00873946 -9.26979e-05 0.00896377 1.58353e-07 271.829 
-0.79 -0.33 -3.58879 2.42951 0.00916033 0.00873061 -5.22562e-05 0.00895451 1.5822e-07 271.775 
-0.75 -0.33 -4.27616 2.48985 0.00917664 0.00875777 -4.04747e-05 0.00897529 1.58545e-07 271.848 
-0.81 -0.17 -3.53887 5.52713 0.00913007 0.00869698 -0.000113219 0.0089266 1.57811e-07 271.631 
-0.79 -0.17 -3.86073 5.57165 0.00914163 0.00872665 -0.000115275 0.00895071 1.58144e-07 271.791 
-0.75 -0.17 -4.4581 5.43682 0.0091679 0.00874169 -0.000104106 0.00896404 1.5829e-07 271.945 
-0.73 -0.31 -4.82635 2.88096 0.00919184 0.00877951 -5.12357e-05 0.00899814 1.58866e-07 271.99 
-0.73 -0.29 -4.84348 3.20848 0.00918636 0.00877485 -5.61068e-05 0.00899155 1.5883e-07 271.852 
-0.73 -0.27 -4.87291 3.34294 0.00919688 0.00877735 -6.64896e-05 0.0089974 1.5887e-07 271.961 
-0.73 -0.25 -4.62577 3.7911 0.00918312 0.0087707 -6.77361e-05 0.00898706 1.58814e-07 271.744 
-0.73 -0.23 -4.89267 4.16142 0.00918795 0.00877143 -7.54989e-05 0.00898819 1.58839e-07 271.736 
-0.73 -0.21 -4.83739 4.38594 0.00917819 0.00876488 -9.1496e-05 0.00898409 1.58642e-07 271.949 
-0.73 -0.19 -4.91785 4.72606 0.00917004 0.00877418 -9.83092e-05 0.00897982 1.58583e-07 271.92 
-0.79 -0.05 -3.38866 7.65409 0.00905598 0.00871846 -0.000149656 0.00890074 1.57358e-07 271.624 
-0.87 -0.03 -2.18828 8.28223 0.00900015 0.00863197 -0.000173552 0.00883344 1.56368e-07 271.277 
-0.83 -0.05 -2.79032 7.96631 0.00903624 0.00868544 -0.000154274 0.0088828 1.57126e-07 271.477 
-0.91 -0.03 -1.47933 8.31146 0.00899226 0.00862265 -0.000185437 0.00883076 1.56235e-07 271.426 
-0.81 -0.05 -2.99842 7.63313 0.00904953 0.00869626 -0.000148022 0.00889309 1.57273e-07 271.537 
-0.89 -0.03 -1.81739 8.31255 0.00899763 0.00863288 -0.000175616 0.00883471 1.56342e-07 271.361 
-0.77 -0.05 -3.75421 7.25693 0.00906144 0.00872356 -0.00015587 0.00890897 1.57517e-07 271.6 
-0.85 -0.03 -2.52371 8.23322 0.00900811 0.00864577 -0.000174069 0.008848 1.56566e-07 271.38 
-0.75 -0.05 -4.02905 7.06512 0.00906768 0.00874903 -0.000156909 0.00892145 1.57649e-07 271.753 
-0.83 -0.03 -2.70407 8.30286 0.00902449 0.00867577 -0.000162554 0.00887099 1.56929e-07 271.456 
-0.81 -0.03 -3.09139 7.91846 0.00903218 0.00869357 -0.000157423 0.00887872 1.57026e-07 271.525 
-0.79 -0.03 -3.20321 8.03893 0.00904276 0.00871964 -0.000158258 0.00889701 1.57386e-07 271.461 
-0.77 -0.03 -3.63312 7.58875 0.00905253 0.00872879 -0.000159409 0.00890252 1.57454e-07 271.512 
-0.95 -0.17 -0.737703 5.25105 0.00908052 0.00869859 -0.000142519 0.00890042 1.57417e-07 271.512 
-0.99 -0.15 -0.136759 5.01484 0.00904037 0.00871088 -0.0001719 0.00889449 1.57235e-07 271.646 
-0.89 -0.17 -2.05875 5.84028 0.00910857 0.00867867 -0.000123416 0.00891132 1.5743e-07 271.822 
-0.97 -0.15 -0.514812 5.39044 0.0090637 0.00870361 -0.000166647 0.00889649 1.57264e-07 271.655 
-0.95 -0.15 -0.8734 5.71168 0.0090745 0.0086834 -0.000151613 0.00888964 1.57187e-07 271.58 
-0.93 -0.15 -1.19626 6.10158 0.0090791 0.00867363 -0.000140948 0.00889234 1.57323e-07 271.428 
-0.83 -0.17 -3.11927 5.65189 0.00912973 0.00870233 -0.000107192 0.00893163 1.5781e-07 271.786 
-0.91 -0.15 -1.48536 6.11943 0.00909134 0.00867916 -0.00013865 0.00890478 1.574e-07 271.674 
-0.99 -0.13 -0.238217 5.39127 0.00904415 0.00870891 -0.000188802 0.00889061 1.57144e-07 271.684 
-0.89 -0.15 -1.73274 6.21236 0.00908901 0.00866271 -0.000128534 0.00889406 1.5724e-07 271.624 
-0.97 -0.13 -0.527288 5.79063 0.00904756 0.00868497 -0.000174045 0.00888274 1.57112e-07 271.499 
-0.87 -0.15 -2.37018 6.05304 0.00910046 0.0086808 -0.000125019 0.00891094 1.57453e-07 271.772 
-0.95 -0.13 -0.970572 6.11742 0.00905963 0.00867103 -0.000162522 0.0088828 1.57132e-07 271.465 
-0.77 -0.17 -4.1847 5.27858 0.00915472 0.00872462 -0.000104868 0.0089562 1.58225e-07 271.819 
-0.85 -0.15 -2.75033 6.20411 0.00911804 0.00867713 -0.000117056 0.00891572 1.57665e-07 271.55 
-0.93 -0.13 -1.21176 6.25652 0.00908048 0.00867314 -0.000154997 0.0088965 1.57285e-07 271.621 
-0.83 -0.15 -2.98372 5.9968 0.00912697 0.008696 -0.000116364 0.00892702 1.5779e-07 271.679 
-0.91 -0.13 -1.53906 6.45519 0.00908222 0.00866123 -0.000145702 0.00888852 1.57204e-07 271.517 
-0.99 -0.11 -0.0845829 5.69291 0.00904226 0.00869624 -0.000186529 0.00888504 1.5702e-07 271.728 
-0.81 -0.15 -3.37324 5.91053 0.00913421 0.00870835 -0.000117287 0.00893475 1.57956e-07 271.63 
-0.89 -0.13 -1.93123 6.58547 0.00909018 0.00866553 -0.000133065 0.00889381 1.57287e-07 271.536 
-0.97 -0.11 -0.495264 6.2056 0.00903904 0.00867468 -0.000178134 0.00887669 1.56993e-07 271.519 
-0.79 -0.15 -3.73588 5.81458 0.00913403 0.0087211 -0.000119856 0.00894541 1.58145e-07 271.629 
-0.87 -0.13 -2.31515 6.68643 0.0090975 0.00866946 -0.000134248 0.00890045 1.57443e-07 271.468 
-0.95 -0.11 -0.79261 6.40883 0.0090463 0.0086673 -0.000174239 0.00887281 1.57053e-07 271.296 
-0.77 -0.15 -4.14922 5.69015 0.00913561 0.00872119 -0.000116791 0.00894329 1.581e-07 271.641 
-0.85 -0.13 -2.68223 6.34566 0.00910164 0.00867565 -0.000129022 0.00890376 1.57456e-07 271.546 
-0.93 -0.11 -1.24296 6.71232 0.00905193 0.00865779 -0.000165578 0.00887193 1.57013e-07 271.339 
-0.75 -0.15 -4.41478 5.57374 0.00914368 0.00874235 -0.000113934 0.00895479 1.58251e-07 271.731 
-0.83 -0.13 -2.97897 6.33718 0.00911342 0.00869297 -0.000126493 0.00891843 1.5756e-07 271.815 
-0.91 -0.11 -1.63275 6.81706 0.00906147 0.00865003 -0.000152242 0.00887527 1.57012e-07 271.444 
-0.99 -0.09 -0.109861 5.89701 0.00900472 0.00868378 -0.000197755 0.00886015 1.56762e-07 271.413 
-0.81 -0.13 -3.44112 6.38652 0.0091154 0.00870643 -0.000121874 0.00892752 1.57839e-07 271.611 
-0.89 -0.11 -1.98799 6.98719 0.00907594 0.00866121 -0.000146674 0.00888739 1.57294e-07 271.327 
-0.97 -0.09 -0.352011 6.66385 0.00902647 0.00866736 -0.000188932 0.00886587 1.56797e-07 271.528 
-0.79 -0.13 -3.77551 6.21579 0.0091241 0.00871924 -0.000120153 0.00893744 1.57952e-07 271.719 
-0.87 -0.11 -2.25231 6.99207 0.00908364 0.00866373 -0.000140017 0.00889234 1.57305e-07 271.459 
-0.95 -0.09 -0.785869 6.79841 0.00903633 0.00865946 -0.000179241 0.00887047 1.56831e-07 271.61 
-0.77 -0.13 -4.04073 6.05683 0.00912556 0.00871694 -0.000119037 0.00893419 1.58005e-07 271.527 
-0.85 -0.11 -2.63927 6.80199 0.00908814 0.00867415 -0.000132385 0.00889705 1.57451e-07 271.35 
-0.93 -0.09 -1.12877 7.0146 0.00904205 0.00864868 -0.000173095 0.00886893 1.56957e-07 271.344 
-0.83 -0.11 -3.12359 6.7826 0.00908645 0.00868347 -0.000129943 0.00890313 1.5751e-07 271.435 
-0.91 -0.09 -1.48832 7.24167 0.00904626 0.00864121 -0.000161327 0.00886204 1.56869e-07 271.286 
-0.99 -0.07 -0.212902 6.1898 0.00900225 0.00867627 -0.000205666 0.00885671 1.56693e-07 271.427 
-0.81 -0.11 -3.42377 6.60942 0.00909755 0.00871108 -0.000129724 0.00892161 1.57568e-07 271.898 
-0.89 -0.09 -1.92231 7.35424 0.00905578 0.00865304 -0.000157521 0.00887241 1.57005e-07 271.367 
-0.97 -0.07 -0.518959 6.92825 0.00899885 0.00865672 -0.000200874 0.00884603 1.56475e-07 271.477 
-0.79 -0.11 -3.66067 6.57668 0.00910468 0.00871282 -0.000130612 0.00892643 1.57872e-07 271.521 
-0.87 -0.09 -2.16082 7.18413 0.0090673 0.00865629 -0.000147022 0.00888118 1.57218e-07 271.268 
-0.95 -0.07 -0.791299 7.19417 0.00900206 0.00865048 -0.000187868 0.00885029 1.56526e-07 271.52 
-0.77 -0.11 -4.05415 6.27641 0.00912134 0.00871739 -0.000132108 0.00893332 1.57974e-07 271.555 
-0.85 -0.09 -2.43576 7.20688 0.00907535 0.00866816 -0.000141113 0.008889 1.57219e-07 271.505 
-0.93 -0.07 -1.29177 7.46862 0.00901492 0.00863718 -0.00017871 0.00885239 1.56635e-07 271.396 
-0.75 -0.11 -4.41237 6.10839 0.0091352 0.0087471 -0.000130063 0.0089549 1.58292e-07 271.664 
-0.83 -0.09 -2.78039 7.22039 0.00908537 0.00868189 -0.000137858 0.00890148 1.57429e-07 271.523 
-0.91 -0.07 -1.64692 7.58597 0.00902764 0.00863705 -0.000173683 0.00885615 1.56675e-07 271.441 
-0.99 -0.05 -0.156596 6.60826 0.00898411 0.00866661 -0.000214862 0.00884292 1.56463e-07 271.404 
-0.81 -0.09 -3.30186 7.02482 0.00909471 0.00871273 -0.000139688 0.00891963 1.57724e-07 271.568 
-0.89 -0.07 -1.91489 7.67316 0.00903422 0.00864524 -0.000164982 0.00886262 1.56871e-07 271.3 
-0.97 -0.05 -0.594604 7.15538 0.00899754 0.00864858 -0.000204706 0.00884621 1.56509e-07 271.424 
-0.79 -0.09 -3.74071 6.85349 0.009096 0.00871447 -0.000135043 0.0089182 1.57693e-07 271.579 
-0.87 -0.07 -2.33301 7.5896 0.00903914 0.00864376 -0.000156581 0.00886002 1.56741e-07 271.445 
-0.95 -0.05 -0.852078 7.60988 0.00900448 0.00864087 -0.00019565 0.00884463 1.56473e-07 271.438 
-0.77 -0.09 -4.04834 6.69985 0.00909256 0.00871701 -0.000133837 0.0089197 1.57692e-07 271.625 
-0.85 -0.07 -2.58051 7.44094 0.00905007 0.00866004 -0.000149074 0.00887794 1.57012e-07 271.525 
-0.93 -0.05 -1.19166 7.89074 0.00900177 0.00862795 -0.000181715 0.00883909 1.56427e-07 271.348 
-0.75 -0.09 -4.34434 6.50939 0.00909326 0.00874612 -0.000142861 0.00893285 1.57906e-07 271.657 
-0.83 -0.07 -3.06572 7.736 0.00905838 0.00868824 -0.000145031 0.00888958 1.57104e-07 271.722 
-0.91 -0.05 -1.56294 7.93295 0.00900344 0.00862928 -0.000176061 0.00884113 1.56465e-07 271.344 
-0.99 -0.03 -0.208688 7.04678 0.00895649 0.00865105 -0.000226607 0.00882173 1.56111e-07 271.363 
-0.81 -0.07 -3.3168 7.45022 0.00905842 0.00870278 -0.000145136 0.0089 1.57331e-07 271.648 
-0.89 -0.05 -1.83357 7.96924 0.00900662 0.00863754 -0.000172605 0.0088458 1.56576e-07 271.296 
-0.97 -0.03 -0.468615 7.42329 0.00896702 0.00863721 -0.000211293 0.00882227 1.56189e-07 271.244 