ITEM: TIMESTEP
914500
ITEM: NUMBER OF CELLS
5000
ITEM: BOX BOUNDS ss ss pp
-1 1
-0.5 0.5
-0.5 0.5
ITEM: CELLS xc yc f_U[*] f_V[*] f_Tau[1] f_Tau[2] f_Tau[3] f_Press[*] f_Mrho[*] f_Ttra[*] 
-0.99 -0.49 -0.218233 0.348351 0.00898775 0.00875461 -3.44556e-05 0.0088795 1.56647e-07 272.206 
-0.97 -0.49 -0.712774 0.0710225 0.0089832 0.00875626 -3.42496e-05 0.00887805 1.56663e-07 272.133 
-0.95 -0.49 -0.802791 0.0450754 0.00898926 0.00875141 -3.43832e-05 0.00887738 1.56687e-07 272.071 
-0.93 -0.49 -0.99862 0.153199 0.00899928 0.00875861 -2.67817e-05 0.00888698 1.56846e-07 272.089 
-0.91 -0.49 -1.29528 0.0122881 0.00900785 0.00872887 -1.99882e-05 0.00886896 1.5675e-07 271.703 
-0.99 -0.47 -0.166252 0.641526 0.00901866 0.00877675 -1.99351e-05 0.00890832 1.57095e-07 272.311 
-0.89 -0.49 -1.62022 0.243892 0.00902587 0.00874175 -2.3785e-05 0.00888774 1.56794e-07 272.203 
-0.97 -0.47 -0.282153 0.429585 0.00901762 0.00875287 -3.97287e-05 0.00889799 1.56844e-07 272.43 
-0.87 -0.49 -1.85895 0.0465225 0.00904291 0.00876711 -1.1301e-05 0.00890252 1.57092e-07 272.138 
-0.95 -0.47 -0.709136 0.393357 0.00903255 0.00875533 -3.88167e-05 0.00890341 1.56972e-07 272.374 
-0.85 -0.49 -2.06213 0.235552 0.00904672 0.0087509 -4.44096e-06 0.00889474 1.56803e-07 272.401 
-0.93 -0.47 -0.999 0.268027 0.00903389 0.00874684 -3.42874e-05 0.00889318 1.56862e-07 272.251 
-0.83 -0.49 -2.13209 -0.15512 0.00905556 0.00876537 3.34308e-06 0.00891347 1.57108e-07 272.445 
-0.91 -0.47 -1.3164 0.653126 0.0090403 0.00873378 -3.1011e-05 0.00889182 1.56938e-07 272.078 
-0.99 -0.45 -0.165985 0.954902 0.0090547 0.00878114 -3.48904e-05 0.00892805 1.57409e-07 272.369 
-0.81 -0.49 -2.24891 0.223502 0.00905997 0.00876636 8.21198e-06 0.00892189 1.57358e-07 272.269 
-0.89 -0.47 -1.7937 0.491894 0.00904187 0.00873802 -3.39872e-05 0.00888958 1.56901e-07 272.074 
-0.97 -0.45 -0.406911 0.653793 0.00906602 0.00876812 -3.98543e-05 0.0089255 1.57296e-07 272.486 
-0.79 -0.49 -2.47888 0.0294629 0.00906437 0.00877927 2.05093e-05 0.00893086 1.57433e-07 272.414 
-0.87 -0.47 -2.01706 0.210508 0.00904632 0.00875042 -2.18609e-05 0.00890678 1.56912e-07 272.58 
-0.95 -0.45 -0.690077 0.777974 0.00905372 0.00874781 -4.12097e-05 0.00890687 1.56952e-07 272.515 
-0.77 -0.49 -2.51536 0.01242 0.00906973 0.00879927 3.50217e-05 0.00894682 1.57682e-07 272.468 
-0.85 -0.47 -2.15505 0.292958 0.00905792 0.0087528 -1.16225e-05 0.00890809 1.56968e-07 272.523 
-0.93 -0.45 -1.14904 0.550751 0.0090628 0.00873578 -4.40779e-05 0.00890464 1.5713e-07 272.137 
-0.83 -0.47 -2.46335 0.154138 0.0090615 0.00875338 -7.973e-06 0.00891628 1.57076e-07 272.586 
-0.91 -0.45 -1.33165 0.902224 0.00906451 0.00874359 -3.32493e-05 0.00890399 1.57159e-07 272.067 
-0.99 -0.43 -0.137007 1.24228 0.00908166 0.00878388 -3.98659e-05 0.0089438 1.57849e-07 272.089 
-0.81 -0.47 -2.6063 0.426417 0.00906996 0.00876003 1.18803e-06 0.00892919 1.57439e-07 272.352 
-0.89 -0.45 -1.66664 0.792705 0.00907353 0.00872617 -3.71561e-05 0.00889661 1.57112e-07 271.922 
-0.97 -0.43 -0.450129 0.8789 0.00908153 0.00876694 -3.79201e-05 0.00893406 1.57472e-07 272.443 
-0.79 -0.47 -2.90682 0.305726 0.00908242 0.00876266 1.47467e-05 0.0089377 1.57644e-07 272.257 
-0.87 -0.45 -2.02618 0.671054 0.00907954 0.00874109 -2.28912e-05 0.00891142 1.5704e-07 272.5 
-0.95 -0.43 -0.666257 0.936635 0.00908783 0.00875202 -4.38297e-05 0.00892465 1.57462e-07 272.173 
-0.77 -0.47 -3.17697 0.138287 0.00909696 0.00879511 1.85521e-05 0.0089516 1.5796e-07 272.134 
-0.85 -0.45 -2.40286 0.448417 0.0090853 0.0087426 -1.63716e-05 0.00891892 1.57207e-07 272.44 
-0.93 -0.43 -0.930822 1.11459 0.00908972 0.00874125 -4.13665e-05 0.00892059 1.57349e-07 272.245 
-0.75 -0.47 -3.30606 0.316662 0.00910353 0.00881563 2.24815e-05 0.00896697 1.57866e-07 272.765 
-0.83 -0.45 -2.62937 0.428364 0.00909289 0.00875693 -1.45718e-05 0.00893354 1.57551e-07 272.29 
-0.91 -0.43 -1.49381 0.997756 0.00908777 0.00873622 -4.36106e-05 0.00891018 1.57197e-07 272.19 
-0.99 -0.41 -0.193737 1.57427 0.00908285 0.00877699 -4.53467e-05 0.0089403 1.57859e-07 271.965 
-0.81 -0.45 -2.84205 0.772294 0.00909832 0.00874139 -1.19916e-05 0.00893113 1.57492e-07 272.319 
-0.89 -0.43 -1.48907 1.17905 0.00907913 0.00871826 -3.50926e-05 0.00890183 1.57108e-07 272.089 
-0.97 -0.41 -0.414698 1.06193 0.00909823 0.0087733 -5.05939e-05 0.00894108 1.57518e-07 272.577 
-0.79 -0.45 -3.09228 0.540233 0.00910788 0.00875711 2.78903e-06 0.00893781 1.57736e-07 272.101 
-0.87 -0.43 -1.82133 0.897042 0.00908358 0.00873533 -3.47082e-05 0.00891626 1.57276e-07 272.239 
-0.95 -0.41 -0.589864 1.3252 0.00910455 0.0087573 -4.07448e-05 0.00893848 1.57668e-07 272.24 
-0.77 -0.45 -3.44906 0.4411 0.00911644 0.00878719 9.36216e-06 0.0089558 1.57868e-07 272.421 
-0.85 -0.43 -2.03602 0.807598 0.0090971 0.00873697 -2.44844e-05 0.00892202 1.5742e-07 272.166 
-0.93 -0.41 -1.17512 1.6275 0.00909456 0.00872774 -4.24069e-05 0.00891846 1.57394e-07 272.102 
-0.75 -0.45 -3.69292 0.466317 0.00912074 0.00880989 1.62299e-05 0.00896682 1.58171e-07 272.234 
-0.83 -0.43 -2.42444 0.865475 0.0091011 0.00875242 -1.6485e-05 0.00893453 1.57575e-07 272.28 
-0.91 -0.41 -1.3172 1.18721 0.00909806 0.00873362 -3.48437e-05 0.00892288 1.5759e-07 271.899 
-0.99 -0.39 -0.0950198 1.80862 0.00908549 0.00878448 -5.37287e-05 0.00894807 1.5799e-07 271.976 
-0.81 -0.43 -3.06436 1.02558 0.00910402 0.00873466 -1.4275e-05 0.00893337 1.57637e-07 272.137 
-0.89 -0.41 -1.71619 1.39413 0.00910169 0.00872999 -3.91032e-05 0.00892158 1.57305e-07 272.352 
-0.97 -0.39 -0.563354 1.3986 0.00908971 0.00876893 -5.05253e-05 0.00893617 1.57702e-07 272.11 
-0.79 -0.43 -3.17964 0.764731 0.00911269 0.00874405 -8.33312e-06 0.00893797 1.57767e-07 272.053 
-0.87 -0.41 -2.03432 1.24988 0.00909864 0.00872417 -3.57183e-05 0.00892284 1.57269e-07 272.452 
-0.95 -0.39 -1.01714 1.58597 0.00908382 0.00874192 -4.63718e-05 0.00891737 1.57285e-07 272.258 
-0.77 -0.43 -3.47301 0.741403 0.00913168 0.00878504 3.36274e-06 0.00896925 1.58189e-07 272.277 
-0.85 -0.41 -2.52179 1.1101 0.00909993 0.00873753 -3.62033e-05 0.00892997 1.57599e-07 272.099 
-0.93 -0.39 -0.640963 1.81742 0.00909733 0.00873156 -3.57947e-05 0.00892392 1.57554e-07 271.993 
-0.83 -0.41 -2.72908 1.24569 0.00911525 0.00874013 -2.74816e-05 0.00893629 1.57704e-07 272.11 
-0.91 -0.39 -1.22578 1.81246 0.00909869 0.00873207 -4.50446e-05 0.00892536 1.57469e-07 272.183 
-0.99 -0.37 0.102567 1.98514 0.00908694 0.00879464 -5.8937e-05 0.00895382 1.58174e-07 271.834 
-0.81 -0.41 -2.78982 1.3396 0.00912608 0.00872849 -1.72516e-05 0.00893629 1.57722e-07 272.08 
-0.89 -0.39 -1.49897 1.5237 0.00911049 0.00873325 -4.74428e-05 0.0089364 1.57607e-07 272.281 
-0.97 -0.37 -0.248162 2.0765 0.00909528 0.00875495 -5.70264e-05 0.00893959 1.57679e-07 272.255 
-0.79 -0.41 -3.24235 0.995278 0.00913947 0.00874714 -1.63111e-05 0.00895471 1.58068e-07 272.044 
-0.87 -0.39 -1.79319 1.6203 0.00912386 0.00871633 -4.12242e-05 0.0089296 1.57458e-07 272.33 
-0.95 -0.37 -0.710684 1.74751 0.00911141 0.00874033 -5.0884e-05 0.00893329 1.57725e-07 271.982 
-0.77 -0.41 -3.68048 1.22317 0.00914212 0.00877545 -2.08482e-05 0.00897117 1.58309e-07 272.128 
-0.85 -0.39 -2.17774 1.5681 0.0091367 0.00874243 -3.98611e-05 0.00894706 1.58023e-07 271.888 
-0.93 -0.37 -1.32334 1.93403 0.00912009 0.00873373 -4.98351e-05 0.00893906 1.57732e-07 272.147 
-0.75 -0.41 -3.88659 1.12857 0.00916405 0.00879895 -8.66251e-06 0.00899223 1.58656e-07 272.17 
-0.83 -0.39 -2.58803 1.46861 0.0091331 0.00872722 -3.80702e-05 0.00893684 1.57779e-07 271.998 
-0.91 -0.37 -1.29383 2.04692 0.00913882 0.00873611 -5.69198e-05 0.00894739 1.57734e-07 272.396 
-0.99 -0.35 -0.189746 2.03072 0.00910477 0.00878436 -7.6548e-05 0.00895835 1.58193e-07 271.939 
-0.81 -0.39 -2.83688 1.36387 0.00913828 0.00872783 -3.16762e-05 0.00894072 1.57725e-07 272.208 
-0.89 -0.37 -1.70483 2.0163 0.00914089 0.0087294 -4.9394e-05 0.00894464 1.57767e-07 272.255 
-0.97 -0.35 -0.384047 2.55382 0.0091105 0.00874742 -6.36327e-05 0.00894364 1.57892e-07 272.01 
-0.79 -0.39 -3.19438 1.62848 0.00914426 0.00873829 -2.65787e-05 0.00895517 1.5804e-07 272.105 
-0.87 -0.37 -2.21403 2.02264 0.00913762 0.00871511 -5.13073e-05 0.0089363 1.57565e-07 272.351 
-0.95 -0.35 -0.705355 2.07594 0.00912106 0.00873361 -5.93768e-05 0.00893738 1.57823e-07 271.938 
-0.77 -0.39 -3.7287 1.57663 0.00915626 0.00878181 -2.16698e-05 0.00898528 1.58488e-07 272.248 
-0.85 -0.37 -2.48186 1.80789 0.00913873 0.00873808 -4.85792e-05 0.00894262 1.57845e-07 272.06 
-0.93 -0.35 -1.06733 2.37481 0.00912783 0.00873965 -6.49121e-05 0.00894781 1.57823e-07 272.256 
-0.83 -0.37 -2.73799 1.82058 0.00914602 0.00871732 -4.03055e-05 0.00893816 1.57806e-07 271.991 
-0.91 -0.35 -1.50659 2.41336 0.00912046 0.0087368 -5.44296e-05 0.00893265 1.57623e-07 272.14 
-0.81 -0.37 -3.17606 1.60718 0.00915806 0.00872349 -3.30716e-05 0.00895106 1.57927e-07 272.175 
-0.89 -0.35 -1.80935 2.4 0.00912835 0.00872321 -5.69596e-05 0.008932 1.57595e-07 272.167 
-0.79 -0.37 -3.57628 2.04526 0.00916069 0.00874226 -3.14777e-05 0.00896779 1.58384e-07 271.897 
-0.87 -0.35 -2.17715 2.24112 0.009145 0.00871931 -5.29914e-05 0.00894124 1.57746e-07 272.188 
-0.77 -0.37 -3.86868 2.15704 0.00916516 0.00877645 -2.86323e-05 0.00897973 1.58477e-07 272.098 
-0.85 -0.35 -2.58748 2.26062 0.00915534 0.00872371 -4.98225e-05 0.00894295 1.57917e-07 271.945 
-0.83 -0.35 -2.99669 2.1428 0.00915291 0.0087182 -4.72363e-05 0.00893857 1.57872e-07 271.891 
-0.81 -0.35 -3.45211 2.18589 0.00915354 0.00872053 -4.70668e-05 0.00894733 1.5797e-07 271.988 
-0.79 -0.35 -3.71303 2.30092 0.00917506 0.00873961 -4.14304e-05 0.00896578 1.58322e-07 271.943 
-0.77 -0.35 -3.90306 2.39528 0.0091863 0.0087664 -3.27121e-05 0.0089846 1.58456e-07 272.283 
-0.75 -0.35 -4.16674 2.32851 0.00918989 0.00878363 -2.39127e-05 0.00899733 1.58764e-07 272.139 
-0.75 -0.49 -2.68399 0.164706 0.00908392 0.00881115 2.88447e-05 0.00895015 1.57856e-07 272.271 
-0.75 -0.43 -3.91488 0.783165 0.00914125 0.00880596 5.76194e-07 0.00898467 1.58396e-07 272.389 
-0.75 -0.39 -4.52272 1.60835 0.00915748 0.00878421 -2.04783e-05 0.00898766 1.58585e-07 272.154 
-0.75 -0.37 -4.06264 2.02745 0.00916571 0.00878174 -2.21973e-05 0.00898164 1.58398e-07 272.293 
-0.77 -0.33 -3.95709 2.66195 0.00916052 0.00875264 -4.45735e-05 0.00895874 1.58302e-07 271.762 
-0.73 -0.49 -2.99243 0.164513 0.00908491 0.00882036 2.40736e-05 0.0089623 1.58112e-07 272.197 
-0.73 -0.47 -3.26493 0.144079 0.00910933 0.00881204 2.79934e-05 0.0089751 1.58189e-07 272.455 
-0.73 -0.45 -3.86247 0.224602 0.00912906 0.00880836 1.51251e-05 0.0089766 1.58331e-07 272.256 
-0.73 -0.43 -4.44927 0.829375 0.00915488 0.00880802 3.7224e-06 0.00899247 1.58568e-07 272.328 
-0.73 -0.41 -4.29878 1.08551 0.00916854 0.00880748 -4.23878e-06 0.00900022 1.58688e-07 272.357 
-0.73 -0.39 -4.61409 1.4148 0.00916976 0.00880192 -5.28358e-06 0.00899648 1.58673e-07 272.27 
-0.73 -0.37 -4.48915 1.65416 0.00916575 0.00878212 -2.27175e-05 0.00898362 1.58482e-07 272.209 
-0.73 -0.35 -4.55772 2.08706 0.00918484 0.00877948 -1.8895e-05 0.00899075 1.58613e-07 272.199 
-0.81 -0.29 -3.32389 3.34224 0.00915153 0.00871379 -6.72361e-05 0.00894221 1.58016e-07 271.753 
-0.89 -0.27 -1.78576 3.8372 0.0091197 0.00869698 -8.63743e-05 0.00892449 1.57454e-07 272.183 
-0.97 -0.25 -0.652093 3.78732 0.00909858 0.00872383 -0.000108872 0.00891997 1.57515e-07 271.94 
-0.83 -0.29 -3.03419 3.41432 0.0091455 0.00872392 -7.00075e-05 0.00894605 1.57759e-07 272.312 
-0.91 -0.27 -1.36547 3.90908 0.00911969 0.00870338 -8.93573e-05 0.00892678 1.57637e-07 271.936 
-0.99 -0.25 -0.300698 3.79774 0.00909282 0.00874445 -0.000115146 0.00892915 1.57781e-07 271.761 
-0.79 -0.29 -3.61964 3.31434 0.009169 0.00872354 -6.14508e-05 0.00895327 1.58109e-07 271.93 
-0.87 -0.27 -2.34328 4.01624 0.00912467 0.00870783 -7.43889e-05 0.00893551 1.57782e-07 271.952 
-0.95 -0.25 -0.803206 3.89031 0.00910813 0.00872865 -0.000111467 0.00893072 1.57746e-07 271.869 
-0.77 -0.29 -4.0456 3.23238 0.00918765 0.00874779 -5.12818e-05 0.00897848 1.58669e-07 271.733 
-0.85 -0.27 -2.59524 3.61899 0.00914031 0.00871365 -7.31231e-05 0.00893674 1.57742e-07 272.058 
-0.93 -0.25 -1.17443 4.03352 0.0091018 0.00870565 -0.00010788 0.0089169 1.57444e-07 271.968 
-0.75 -0.29 -4.53692 3.14884 0.00918631 0.00876657 -5.46447e-05 0.00898707 1.58688e-07 271.96 
-0.83 -0.27 -2.9589 3.72795 0.00915342 0.00872764 -7.24458e-05 0.00895434 1.58133e-07 271.921 
-0.91 -0.25 -1.54097 4.20598 0.00911612 0.00869463 -9.67435e-05 0.00891502 1.57442e-07 271.915 
-0.99 -0.23 0.0359404 4.09373 0.00907465 0.00874056 -0.000127011 0.0089212 1.57542e-07 271.929 
-0.81 -0.27 -3.53923 3.66018 0.00916242 0.00871687 -8.20061e-05 0.00895145 1.58095e-07 271.898 
-0.89 -0.25 -2.0146 4.31917 0.00912897 0.00869033 -8.7665e-05 0.00892793 1.57495e-07 272.217 
-0.97 -0.23 -0.197987 4.00286 0.00909024 0.00873277 -0.000121347 0.00892474 1.57679e-07 271.802 
-0.79 -0.27 -4.00024 3.71592 0.00917128 0.00870836 -7.57466e-05 0.00894603 1.58096e-07 271.731 
-0.87 -0.25 -2.23212 4.30914 0.00914815 0.00870298 -8.56715e-05 0.00894469 1.57963e-07 271.919 
-0.95 -0.23 -0.759754 4.2288 0.00909531 0.0087132 -0.000118275 0.00891826 1.57453e-07 271.994 
-0.77 -0.27 -4.24415 3.66608 0.0091766 0.00874329 -6.28811e-05 0.0089741 1.58577e-07 271.757 
-0.85 -0.25 -2.58811 4.03956 0.00916043 0.00871708 -8.95001e-05 0.00894576 1.57907e-07 272.048 
-0.93 -0.23 -1.04967 4.34171 0.00911293 0.00870752 -0.000111736 0.00892473 1.57541e-07 272.04 
-0.83 -0.25 -3.02323 4.05158 0.00916101 0.00871558 -8.53753e-05 0.00894148 1.58183e-07 271.444 
-0.91 -0.23 -1.28811 4.6371 0.00911794 0.00868144 -0.000105959 0.00891869 1.57411e-07 272.081 
-0.99 -0.21 -0.0166224 4.11405 0.00909395 0.00873773 -0.000132582 0.00893074 1.57866e-07 271.662 
-0.81 -0.25 -3.26 4.26148 0.00916285 0.00872997 -7.79073e-05 0.00895656 1.58338e-07 271.635 
-0.89 -0.23 -1.80882 4.84138 0.00912649 0.00868373 -9.89781e-05 0.00892053 1.57571e-07 271.859 
-0.97 -0.21 -0.179211 4.35068 0.00910214 0.00871007 -0.000127848 0.00892 1.57728e-07 271.572 
-0.79 -0.25 -3.87114 4.26069 0.00915413 0.00869619 -7.95023e-05 0.00893482 1.57946e-07 271.649 
-0.87 -0.23 -2.30841 4.55134 0.00913707 0.00870666 -0.000102221 0.00893164 1.57778e-07 271.842 
-0.95 -0.21 -0.477432 4.64912 0.00911248 0.00872106 -0.000123951 0.00892974 1.5756e-07 272.16 
-0.77 -0.25 -4.34331 3.80257 0.00916271 0.0087377 -8.13201e-05 0.00895493 1.58214e-07 271.798 
-0.85 -0.23 -2.71831 4.62841 0.00914003 0.00870975 -8.95457e-05 0.00893031 1.57759e-07 271.833 
-0.93 -0.21 -1.20279 4.77507 0.00911226 0.00869822 -0.000122042 0.00891611 1.57538e-07 271.781 
-0.83 -0.23 -3.1686 4.40156 0.00913748 0.00871125 -8.15684e-05 0.00893127 1.57823e-07 271.752 
-0.91 -0.21 -1.52851 4.85042 0.00911906 0.00867449 -0.000112585 0.00891597 1.57509e-07 271.827 
-0.99 -0.19 -0.178661 4.266 0.00907634 0.00872713 -0.000148445 0.0089171 1.57564e-07 271.767 
-0.81 -0.23 -3.58314 4.43978 0.00915038 0.00872082 -8.73725e-05 0.0089487 1.58068e-07 271.861 
-0.89 -0.21 -1.75535 5.45906 0.00913593 0.00869079 -0.000110643 0.00893723 1.57811e-07 271.955 
-0.97 -0.19 -0.634366 4.80549 0.00909264 0.00870877 -0.000144716 0.00890741 1.57651e-07 271.322 
-0.79 -0.23 -3.60349 4.76238 0.00916809 0.00870577 -8.21234e-05 0.00894644 1.58139e-07 271.669 
-0.87 -0.21 -2.13641 4.99205 0.00913675 0.00868882 -0.000110493 0.00892757 1.57852e-07 271.59 
-0.95 -0.19 -0.910994 5.05251 0.00910696 0.00871742 -0.000129916 0.00891771 1.57595e-07 271.733 
-0.77 -0.23 -3.92125 4.25009 0.0091706 0.00873564 -8.81171e-05 0.00896449 1.58358e-07 271.842 
-0.85 -0.21 -2.7635 5.08422 0.00914703 0.00870029 -9.12555e-05 0.00893762 1.57818e-07 271.953 
-0.93 -0.19 -0.942766 5.27795 0.0091154 0.00869088 -0.00012078 0.00892018 1.5773e-07 271.575 
-0.75 -0.23 -4.38965 3.99933 0.00917518 0.00875118 -8.90506e-05 0.00897677 1.58523e-07 271.931 
-0.83 -0.21 -3.19239 4.68297 0.00916453 0.00872141 -9.38454e-05 0.00895281 1.57995e-07 272.112 
-0.91 -0.19 -1.51732 5.22836 0.00911749 0.00866881 -0.000124369 0.00890513 1.57417e-07 271.657 
-0.81 -0.21 -3.46655 4.76199 0.00915673 0.00871433 -8.4593e-05 0.00895243 1.58274e-07 271.62 
-0.89 -0.19 -1.90587 5.67197 0.00912391 0.00868288 -0.000111865 0.00891747 1.57516e-07 271.862 
-0.79 -0.21 -3.80427 4.94071 0.00914868 0.00870716 -9.41072e-05 0.00894458 1.58113e-07 271.658 
-0.87 -0.19 -2.26382 5.39349 0.00912595 0.00868938 -0.000102442 0.00892321 1.5772e-07 271.685 
-0.77 -0.21 -4.15752 4.78956 0.00916516 0.0087392 -9.4218e-05 0.00896315 1.58375e-07 271.771 
-0.85 -0.19 -2.49526 5.47479 0.00912928 0.00868883 -0.000111449 0.00892406 1.57799e-07 271.574 
-0.75 -0.21 -4.63857 4.48064 0.00917314 0.00874676 -9.61896e-05 0.00897343 1.58461e-07 271.935 
-0.83 -0.19 -2.87051 5.18982 0.00912657 0.00871631 -0.000103942 0.00893779 1.57854e-07 271.897 
-0.81 -0.19 -3.33241 5.15689 0.00914882 0.00870283 -9.76863e-05 0.00893801 1.58035e-07 271.593 
-0.79 -0.19 -3.89767 5.10718 0.00916827 0.00872874 -9.28376e-05 0.00896637 1.58427e-07 271.78 
-0.77 -0.19 -4.08265 5.24922 0.00917031 0.00874038 -0.000105866 0.00896645 1.58558e-07 271.559 
-0.99 -0.33 -0.14929 2.4188 0.00909591 0.00877343 -8.31869e-05 0.00894922 1.5792e-07 272.131 
-0.97 -0.33 -0.424313 2.59779 0.00911305 0.00874624 -8.01945e-05 0.00894276 1.57906e-07 271.959 
-0.91 -0.33 -1.461 2.89374 0.00915178 0.00874052 -6.35933e-05 0.0089458 1.57824e-07 272.193 
-0.99 -0.31 -0.22095 2.8861 0.00908661 0.00875748 -9.28821e-05 0.00893399 1.57757e-07 271.949 
-0.97 -0.31 -0.377802 2.63986 0.00909715 0.00874886 -8.31853e-05 0.00893437 1.57881e-07 271.746 
-0.87 -0.33 -2.14814 2.65668 0.00914223 0.00872632 -6.42659e-05 0.00894302 1.57861e-07 272.045 
-0.95 -0.31 -0.92037 3.15868 0.00909911 0.00871984 -8.33486e-05 0.00892064 1.57519e-07 271.953 
-0.85 -0.33 -2.2337 2.43769 0.00914053 0.00871203 -5.60742e-05 0.00894045 1.57713e-07 272.221 
-0.93 -0.31 -1.33094 3.18547 0.00911799 0.00873205 -8.69069e-05 0.00893605 1.5771e-07 272.093 
-0.91 -0.31 -1.58454 2.97629 0.00913655 0.00872377 -7.09259e-05 0.00894286 1.57702e-07 272.314 
-0.99 -0.29 -0.0987865 3.12094 0.00906954 0.0087571 -0.00010061 0.00892928 1.57655e-07 271.982 
-0.81 -0.33 -3.23874 2.53896 0.00916379 0.00872019 -4.95507e-05 0.00895752 1.58005e-07 272.236 
-0.89 -0.31 -1.71451 3.18876 0.00914432 0.00871603 -5.66929e-05 0.00894534 1.57825e-07 272.176 
-0.97 -0.29 -0.503634 3.10782 0.00907945 0.00873063 -9.48913e-05 0.0089177 1.57486e-07 271.921 
-0.87 -0.31 -2.16345 2.8966 0.00914951 0.00872707 -6.2376e-05 0.00894549 1.57985e-07 271.906 
-0.95 -0.29 -0.744585 3.48498 0.00909719 0.00872325 -9.2362e-05 0.0089256 1.57486e-07 272.16 
-0.85 -0.31 -2.73225 2.80123 0.00914646 0.0087038 -5.91238e-05 0.00893584 1.57774e-07 271.976 
-0.93 -0.29 -0.980166 3.27206 0.00910269 0.00873369 -9.49221e-05 0.00892491 1.57483e-07 272.146 
-0.83 -0.31 -2.9164 3.17064 0.00914517 0.00872324 -5.28423e-05 0.00895211 1.57919e-07 272.22 
-0.91 -0.29 -1.22081 3.52789 0.00909355 0.00870045 -8.15014e-05 0.00890923 1.57312e-07 271.963 
-0.99 -0.27 -0.0877461 3.32311 0.00908207 0.00875317 -0.000112697 0.00893643 1.57889e-07 271.796 
-0.81 -0.31 -3.31216 2.98343 0.00915145 0.0087152 -5.70287e-05 0.00895146 1.57999e-07 272.063 
-0.89 -0.29 -1.6168 3.44159 0.00911196 0.00871044 -7.62399e-05 0.0089237 1.57555e-07 271.984 
-0.97 -0.27 -0.43865 3.53613 0.00908485 0.00872456 -0.000107744 0.00892054 1.57498e-07 271.986 
-0.79 -0.31 -3.71874 2.90702 0.00915799 0.00873066 -5.16319e-05 0.00895414 1.58118e-07 271.94 
-0.87 -0.29 -2.08828 3.49045 0.00912433 0.00871824 -5.69298e-05 0.00893314 1.57827e-07 271.803 
-0.95 -0.27 -0.666324 3.62906 0.00909547 0.00872481 -0.000102093 0.00892505 1.57542e-07 272.048 
-0.77 -0.31 -4.04479 2.98631 0.00916128 0.00874492 -4.78598e-05 0.00895424 1.58345e-07 271.554 
-0.85 -0.29 -2.68597 3.29254 0.00913201 0.00870552 -6.04579e-05 0.00893076 1.57888e-07 271.624 
-0.93 -0.27 -0.924115 3.62476 0.00910505 0.00871803 -9.40295e-05 0.0089196 1.57342e-07 272.226 
-0.95 -0.33 -0.517564 2.56616 0.00912265 0.00872421 -7.15332e-05 0.00893316 1.57713e-07 272 
-0.93 -0.33 -1.02637 2.73613 0.00913657 0.00873385 -6.05101e-05 0.00894074 1.5778e-07 272.114 
-0.89 -0.33 -2.05473 2.74154 0.00914646 0.00871457 -5.79441e-05 0.00893603 1.57676e-07 272.151 
-0.83 -0.33 -2.80326 2.7976 0.00915151 0.00871738 -4.99256e-05 0.00895301 1.57948e-07 272.198 
-0.75 -0.31 -4.29705 2.77896 0.00917321 0.00876604 -4.51251e-05 0.00898544 1.58609e-07 272.045 
-0.75 -0.27 -4.43374 3.57196 0.00920194 0.00876595 -6.17649e-05 0.00899258 1.58839e-07 271.868 
-0.75 -0.25 -4.5581 3.74983 0.0091736 0.00876024 -7.06768e-05 0.00897327 1.58559e-07 271.763 
-0.75 -0.19 -4.44376 4.92633 0.00916423 0.00873718 -9.9341e-05 0.00896595 1.58639e-07 271.404 
-0.79 -0.33 -3.67086 2.5085 0.00915544 0.00873653 -4.95311e-05 0.00895755 1.58172e-07 271.951 
-0.75 -0.33 -4.30021 2.50713 0.00917006 0.00877033 -2.87145e-05 0.00897902 1.58532e-07 271.983 
-0.81 -0.17 -3.52797 5.76321 0.00913294 0.00869603 -0.000108522 0.00892334 1.57732e-07 271.668 
-0.79 -0.17 -3.90555 5.63989 0.00913927 0.00873452 -0.000110031 0.00895504 1.582e-07 271.826 
-0.75 -0.17 -4.41983 5.4756 0.00916548 0.00874351 -0.000105749 0.00896716 1.5846e-07 271.747 
-0.73 -0.31 -4.8502 2.83093 0.00918643 0.0087825 -4.87697e-05 0.00899758 1.58667e-07 272.314 
-0.73 -0.29 -4.61378 3.18056 0.00918989 0.00878093 -5.09019e-05 0.00899412 1.58939e-07 271.743 
-0.73 -0.27 -5.04162 3.30982 0.00920901 0.0087875 -6.45149e-05 0.00900916 1.59034e-07 272.035 
-0.73 -0.25 -4.62353 3.76107 0.0091867 0.00877897 -6.60777e-05 0.0089937 1.58961e-07 271.693 
-0.73 -0.23 -4.79698 4.04474 0.0091807 0.00877471 -7.37768e-05 0.00898765 1.58793e-07 271.797 
-0.73 -0.21 -5.01321 4.39076 0.0091905 0.0087711 -9.45611e-05 0.00898496 1.58628e-07 271.999 
-0.73 -0.19 -4.76956 4.87443 0.00916797 0.00878103 -0.000103877 0.00898108 1.58714e-07 271.734 
-0.79 -0.05 -3.16202 7.59842 0.0090515 0.00871401 -0.000152732 0.00889907 1.57474e-07 271.373 
-0.87 -0.03 -2.07347 8.39371 0.00899177 0.00862561 -0.000183069 0.00882803 1.56343e-07 271.154 
-0.83 -0.05 -2.72533 8.02711 0.00902717 0.00867811 -0.000151855 0.00887167 1.56969e-07 271.407 
-0.91 -0.03 -1.63535 8.06898 0.00899168 0.0086212 -0.000187593 0.00882953 1.56204e-07 271.442 
-0.81 -0.05 -2.89853 7.76453 0.00903902 0.00869317 -0.000139344 0.00888487 1.57317e-07 271.209 
-0.89 -0.03 -1.69639 8.33518 0.00898863 0.00862894 -0.000181991 0.00883046 1.56307e-07 271.291 
-0.77 -0.05 -3.57576 7.32437 0.00906505 0.0087402 -0.000154074 0.00892171 1.57698e-07 271.677 
-0.85 -0.03 -2.48756 8.12709 0.00899614 0.00864633 -0.000178059 0.00884638 1.56597e-07 271.276 
-0.75 -0.05 -3.84765 7.16686 0.00907833 0.0087673 -0.000164045 0.00893095 1.57841e-07 271.712 
-0.83 -0.03 -2.73399 8.32738 0.00901814 0.00866533 -0.000167778 0.0088669 1.57031e-07 271.154 
-0.81 -0.03 -3.20048 7.96698 0.0090303 0.00869117 -0.00015832 0.00887954 1.57226e-07 271.204 
-0.79 -0.03 -3.21001 8.10918 0.0090495 0.00872029 -0.000154921 0.00890183 1.57516e-07 271.384 
-0.77 -0.03 -3.54769 7.51258 0.00905641 0.00874505 -0.00016297 0.00891515 1.57639e-07 271.579 
-0.95 -0.17 -0.729273 5.09685 0.00908507 0.00869813 -0.000146719 0.00890027 1.57433e-07 271.48 
-0.99 -0.15 -0.137212 4.80354 0.0090448 0.00870829 -0.000173028 0.00889454 1.57253e-07 271.616 
-0.89 -0.17 -1.94329 5.84021 0.00911095 0.00866788 -0.00012176 0.00890703 1.57358e-07 271.815 
-0.97 -0.15 -0.395651 5.51515 0.00906463 0.00870895 -0.000162533 0.00889735 1.57338e-07 271.555 
-0.95 -0.15 -0.895097 5.6415 0.00907155 0.00867801 -0.000151715 0.00888653 1.57235e-07 271.402 
-0.93 -0.15 -1.21735 6.00322 0.00907813 0.00867 -0.000138575 0.00889302 1.57302e-07 271.484 
-0.83 -0.17 -2.95486 5.58043 0.00913572 0.00871882 -0.000101056 0.00894126 1.57903e-07 271.918 
-0.91 -0.15 -1.42969 6.22639 0.00909352 0.00867613 -0.000137582 0.00890348 1.57422e-07 271.597 
-0.99 -0.13 -0.268955 5.21257 0.00904824 0.00870798 -0.000191925 0.0088912 1.57306e-07 271.422 
-0.89 -0.15 -1.63474 6.1584 0.00909138 0.00865394 -0.000127967 0.00889013 1.57224e-07 271.532 
-0.97 -0.13 -0.522954 5.9111 0.00906135 0.00868893 -0.00016737 0.00888783 1.57221e-07 271.467 
-0.87 -0.15 -2.27332 5.9877 0.00909826 0.00868618 -0.000123598 0.00891599 1.5747e-07 271.896 
-0.95 -0.13 -0.929274 6.06904 0.00907336 0.0086682 -0.000166188 0.00888652 1.57316e-07 271.262 
-0.77 -0.17 -4.16906 5.18203 0.00915245 0.00873355 -0.0001057 0.00896196 1.58508e-07 271.508 
-0.85 -0.15 -2.61577 6.31279 0.00910441 0.00868315 -0.000112329 0.00891206 1.57584e-07 271.579 
-0.93 -0.13 -1.15859 6.08138 0.00908632 0.00866992 -0.000155776 0.00889659 1.57265e-07 271.658 
-0.83 -0.15 -3.00038 6.03122 0.00912155 0.00870832 -0.000118511 0.00892987 1.57844e-07 271.673 
-0.91 -0.13 -1.59987 6.60645 0.00908535 0.00865769 -0.000142621 0.00889662 1.57307e-07 271.586 
-0.99 -0.11 -0.134341 5.59267 0.00904066 0.00869159 -0.000185621 0.00888086 1.56994e-07 271.645 
-0.81 -0.15 -3.33376 6.15527 0.00913043 0.00870954 -0.000113221 0.0089381 1.5784e-07 271.931 
-0.89 -0.13 -1.89738 6.39046 0.00909505 0.00866013 -0.000133432 0.00889637 1.57511e-07 271.226 
-0.97 -0.11 -0.55628 6.15318 0.00903833 0.00868006 -0.000188458 0.00887877 1.56957e-07 271.646 
-0.79 -0.15 -3.77426 5.88169 0.00913293 0.00872748 -0.000118428 0.00895008 1.58162e-07 271.741 
-0.87 -0.13 -2.39469 6.67837 0.00910183 0.00866521 -0.000129057 0.00890619 1.57644e-07 271.296 
-0.95 -0.11 -0.871895 6.41728 0.00904831 0.00865938 -0.00017321 0.00887118 1.57007e-07 271.326 
-0.77 -0.15 -4.2003 5.6619 0.00914152 0.00873664 -0.000115994 0.00895807 1.58431e-07 271.522 
-0.85 -0.13 -2.72722 6.37148 0.0091204 0.00869153 -0.000128092 0.00892 1.57752e-07 271.531 
-0.93 -0.11 -1.29239 6.51375 0.00906161 0.00865946 -0.000167694 0.00887889 1.57239e-07 271.162 
-0.75 -0.15 -4.5315 5.80398 0.00914679 0.00874378 -0.000112946 0.00896275 1.58545e-07 271.468 
-0.83 -0.13 -2.89258 6.57571 0.00912742 0.00870033 -0.000126014 0.00892871 1.57613e-07 272.036 
-0.91 -0.11 -1.52917 6.92658 0.00906966 0.00864262 -0.000150393 0.00887473 1.57128e-07 271.226 
-0.99 -0.09 -0.0976968 5.89024 0.00899927 0.0086858 -0.000202301 0.00885811 1.5675e-07 271.372 
-0.81 -0.13 -3.43447 6.5332 0.00911773 0.00870657 -0.000116074 0.00892843 1.58014e-07 271.337 
-0.89 -0.11 -1.92007 6.90495 0.00908494 0.00865621 -0.000143616 0.00888569 1.57492e-07 270.933 
-0.97 -0.09 -0.48591 6.69943 0.00902033 0.00867057 -0.000194549 0.00887206 1.56983e-07 271.395 
-0.79 -0.13 -3.59491 6.38671 0.00912955 0.00872909 -0.00012498 0.00894804 1.58095e-07 271.794 
-0.87 -0.11 -2.30655 7.03791 0.00909599 0.00866043 -0.000146521 0.0089 1.57554e-07 271.263 
-0.95 -0.09 -0.961148 6.76544 0.00903407 0.00866033 -0.000181834 0.00887486 1.57037e-07 271.387 
-0.77 -0.13 -4.04091 6.05548 0.00913321 0.00873278 -0.000122024 0.00894604 1.58135e-07 271.664 
-0.85 -0.11 -2.58775 6.73635 0.00910305 0.0086902 -0.000132148 0.00891111 1.57777e-07 271.218 
-0.93 -0.09 -1.25595 6.75409 0.00903628 0.00864222 -0.000178284 0.00886181 1.57021e-07 271.015 
-0.83 -0.11 -2.99915 7.07248 0.00909959 0.00868603 -0.000124961 0.00891363 1.57674e-07 271.472 
-0.91 -0.09 -1.42788 7.23337 0.00904396 0.00863293 -0.000161049 0.00886072 1.5695e-07 271.105 
-0.99 -0.07 -0.379569 6.29222 0.00900667 0.0086837 -0.0002069 0.00886019 1.56643e-07 271.62 
-0.81 -0.11 -3.32526 6.59344 0.00912607 0.00871978 -0.000127268 0.00893584 1.57813e-07 271.909 
-0.89 -0.09 -1.93354 7.3051 0.00906022 0.00865596 -0.000161521 0.00887838 1.57288e-07 271.061 
-0.97 -0.07 -0.618714 7.01689 0.00899381 0.00865618 -0.000203556 0.00884864 1.56552e-07 271.423 
-0.79 -0.11 -3.46557 6.72175 0.00912918 0.00872619 -0.000130022 0.00894605 1.5824e-07 271.484 
-0.87 -0.09 -2.15959 7.31893 0.00907604 0.008656 -0.000157025 0.00888924 1.57504e-07 271.021 
-0.95 -0.07 -0.75744 7.03933 0.00899697 0.00865452 -0.000191857 0.0088475 1.56408e-07 271.638 
-0.77 -0.11 -3.96862 6.33098 0.00912933 0.00872155 -0.000127063 0.00894159 1.58011e-07 271.742 
-0.85 -0.09 -2.5002 7.13989 0.00908276 0.00867075 -0.000147399 0.00889289 1.57487e-07 271.162 
-0.93 -0.07 -1.14039 7.17978 0.00900471 0.00862924 -0.000182043 0.00884483 1.56636e-07 271.162 
-0.75 -0.11 -4.44012 6.30047 0.00914008 0.00875257 -0.000126054 0.00895516 1.58409e-07 271.471 
-0.83 -0.09 -2.84715 7.21654 0.00910046 0.00869082 -0.000138927 0.00891478 1.577e-07 271.463 
-0.91 -0.07 -1.71077 7.51355 0.00902908 0.00862947 -0.000181319 0.00885418 1.56633e-07 271.454 
-0.99 -0.05 -0.000808685 6.66512 0.00898076 0.00867296 -0.000214702 0.00884449 1.56497e-07 271.392 
-0.81 -0.09 -3.20878 7.09663 0.00910151 0.00871858 -0.000139504 0.00892544 1.57903e-07 271.437 
-0.89 -0.07 -1.92319 7.60377 0.00903965 0.00865171 -0.000178411 0.00886638 1.56968e-07 271.248 
-0.97 -0.05 -0.4577 7.2314 0.00900833 0.00865513 -0.000206691 0.00885134 1.56665e-07 271.31 
-0.79 -0.09 -3.66067 6.9367 0.00910529 0.0087227 -0.000126854 0.00892693 1.57835e-07 271.599 
-0.87 -0.07 -2.30531 7.78393 0.00903931 0.00864092 -0.00015947 0.00886585 1.56933e-07 271.291 
-0.95 -0.05 -0.692632 7.33409 0.00900561 0.00863614 -0.000195159 0.00884114 1.56367e-07 271.514 
-0.77 -0.09 -3.85572 6.91286 0.00910113 0.00872199 -0.000122229 0.00893128 1.57906e-07 271.61 
-0.85 -0.07 -2.61691 7.45933 0.00904616 0.0086587 -0.000151893 0.00887602 1.56949e-07 271.575 
-0.93 -0.05 -1.20886 7.76875 0.00900199 0.00862637 -0.000185957 0.00883668 1.56377e-07 271.361 
-0.75 -0.09 -4.12879 6.59326 0.00909412 0.00875226 -0.000135952 0.00893814 1.5805e-07 271.57 
-0.83 -0.07 -3.03372 7.6348 0.00905534 0.00869019 -0.000147199 0.00888878 1.57225e-07 271.489 
-0.91 -0.05 -1.45546 7.94347 0.00899647 0.00862739 -0.000187324 0.0088361 1.56404e-07 271.295 
-0.99 -0.03 -0.167861 7.01485 0.00895743 0.00866191 -0.000231105 0.00882349 1.56106e-07 271.425 
-0.81 -0.07 -3.42492 7.66328 0.00905828 0.00870699 -0.000147076 0.00890049 1.57502e-07 271.368 
-0.89 -0.05 -1.7835 7.94184 0.00899986 0.00863475 -0.000179038 0.00884409 1.56662e-07 271.095 
-0.97 -0.03 -0.303517 7.46864 0.00895802 0.00863271 -0.000211443 0.00881312 1.56085e-07 271.143 