ITEM: TIMESTEP
1058500
ITEM: NUMBER OF CELLS
5000
ITEM: BOX BOUNDS ss ss pp
-1 1
-0.5 0.5
-0.5 0.5
ITEM: CELLS xc yc f_U[*] f_V[*] f_Tau[1] f_Tau[2] f_Tau[3] f_Press[*] f_Mrho[*] f_Ttra[*] 
-0.99 -0.49 -0.205024 0.297777 0.00899606 0.00875276 -2.693e-05 0.00888733 1.56771e-07 272.23 
-0.97 -0.49 -0.53811 0.0479793 0.00899175 0.00874997 -3.00973e-05 0.00888403 1.56621e-07 272.39 
-0.95 -0.49 -0.645671 0.0358257 0.00899206 0.00874996 -3.16375e-05 0.0088798 1.56619e-07 272.263 
-0.93 -0.49 -0.862913 0.132193 0.0089984 0.00874625 -2.38181e-05 0.00888125 1.567e-07 272.168 
-0.91 -0.49 -1.13468 0.0985883 0.00900131 0.00872525 -2.20636e-05 0.00886715 1.56445e-07 272.178 
-0.99 -0.47 -0.160525 0.547535 0.00901676 0.00877199 -1.68406e-05 0.00890466 1.57027e-07 272.316 
-0.89 -0.49 -1.49119 0.244892 0.00901494 0.00874081 -2.30286e-05 0.00888147 1.56735e-07 272.114 
-0.97 -0.47 -0.407011 0.367439 0.00901934 0.00874885 -3.2547e-05 0.00889819 1.56833e-07 272.454 
-0.87 -0.49 -1.70058 0.0235978 0.00903401 0.00875864 -1.60627e-05 0.00889812 1.57027e-07 272.116 
-0.95 -0.47 -0.693237 0.299204 0.00902484 0.00875242 -3.17039e-05 0.00889777 1.56886e-07 272.351 
-0.85 -0.49 -1.94557 0.142263 0.00903783 0.00875324 -9.70692e-06 0.00889891 1.56896e-07 272.367 
-0.93 -0.47 -0.916932 0.333493 0.00902678 0.00874148 -3.31352e-05 0.00889133 1.56825e-07 272.259 
-0.83 -0.49 -2.04263 0.00109718 0.00904743 0.0087664 1.07109e-06 0.0089118 1.57168e-07 272.289 
-0.91 -0.47 -1.20314 0.54769 0.0090388 0.00873013 -3.05383e-05 0.00889017 1.56878e-07 272.13 
-0.99 -0.45 -0.112078 0.905501 0.00905168 0.00877459 -2.83956e-05 0.00892313 1.57295e-07 272.416 
-0.81 -0.49 -2.23363 0.200444 0.00905963 0.00877099 1.04995e-05 0.00892167 1.5736e-07 272.259 
-0.89 -0.47 -1.56073 0.473365 0.00904202 0.00873787 -3.20103e-05 0.00889023 1.56938e-07 272.029 
-0.97 -0.45 -0.406342 0.613281 0.00905182 0.00876087 -3.20509e-05 0.0089202 1.57308e-07 272.305 
-0.79 -0.49 -2.518 0.0921375 0.00907089 0.00877936 1.15642e-05 0.00893299 1.57519e-07 272.33 
-0.87 -0.47 -1.87802 0.266873 0.00904654 0.00874711 -2.88119e-05 0.00890464 1.57164e-07 272.078 
-0.95 -0.45 -0.738784 0.606848 0.0090523 0.00874973 -3.54245e-05 0.00891127 1.57078e-07 272.429 
-0.77 -0.49 -2.52564 -0.0548518 0.00907269 0.00878947 2.23612e-05 0.00894107 1.57601e-07 272.434 
-0.85 -0.47 -1.96721 0.352913 0.00905619 0.00874771 -1.52271e-05 0.00891173 1.57147e-07 272.324 
-0.93 -0.45 -1.13766 0.554204 0.00906039 0.0087396 -4.02841e-05 0.00890681 1.57125e-07 272.212 
-0.83 -0.47 -2.39358 0.225009 0.00906481 0.00875891 -1.05316e-05 0.00891941 1.57309e-07 272.279 
-0.91 -0.45 -1.29516 0.734619 0.00905819 0.0087337 -3.71266e-05 0.00889717 1.57079e-07 271.996 
-0.99 -0.43 -0.191398 1.14041 0.00905483 0.00877036 -3.46991e-05 0.00892756 1.57604e-07 272.017 
-0.81 -0.47 -2.59181 0.460853 0.00907533 0.00876241 -3.85264e-06 0.00893093 1.57414e-07 272.448 
-0.89 -0.45 -1.60026 0.875266 0.00907198 0.00873308 -3.87582e-05 0.00890245 1.57137e-07 272.059 
-0.97 -0.43 -0.4437 0.95145 0.00907098 0.00876908 -3.67708e-05 0.00893215 1.57551e-07 272.249 
-0.79 -0.47 -2.91225 0.364252 0.00908452 0.00877177 8.11196e-06 0.00894166 1.57664e-07 272.343 
-0.87 -0.45 -1.98468 0.583827 0.00907431 0.00874114 -2.60484e-05 0.00891039 1.57206e-07 272.181 
-0.95 -0.43 -0.768199 0.941529 0.00908 0.00875255 -4.38676e-05 0.00892297 1.57452e-07 272.14 
-0.77 -0.47 -3.20034 0.0524036 0.00909379 0.00877942 1.08529e-05 0.00894649 1.57844e-07 272.179 
-0.85 -0.45 -2.28793 0.497176 0.00907835 0.00873774 -2.32296e-05 0.00891762 1.57357e-07 272.14 
-0.93 -0.43 -1.01246 0.94371 0.00908078 0.00873896 -3.83024e-05 0.0089141 1.5723e-07 272.252 
-0.75 -0.47 -3.27821 0.355332 0.00910516 0.00879428 1.83409e-05 0.00895435 1.57799e-07 272.496 
-0.83 -0.45 -2.49601 0.600678 0.00908963 0.00875946 -2.19226e-05 0.00893181 1.5756e-07 272.222 
-0.91 -0.43 -1.5215 0.997629 0.00908713 0.00873841 -4.33784e-05 0.00891585 1.57299e-07 272.186 
-0.99 -0.41 -0.147074 1.46966 0.00907768 0.00877389 -4.74595e-05 0.00893892 1.57719e-07 272.164 
-0.81 -0.45 -2.85246 0.793982 0.00909217 0.00874507 -1.18142e-05 0.00893008 1.57548e-07 272.191 
-0.89 -0.43 -1.69573 1.14415 0.00908235 0.00872695 -4.1935e-05 0.00891083 1.57305e-07 272.024 
-0.97 -0.41 -0.384074 1.15836 0.00908545 0.00876802 -5.06293e-05 0.00893344 1.57551e-07 272.288 
-0.79 -0.45 -2.95257 0.524655 0.00910092 0.00876347 8.035e-07 0.00894141 1.57733e-07 272.216 
-0.87 -0.43 -1.94848 0.943441 0.00908639 0.00872955 -3.80661e-05 0.008916 1.57326e-07 272.145 
-0.95 -0.41 -0.613847 1.29889 0.00909291 0.00875702 -4.54031e-05 0.00893447 1.57559e-07 272.306 
-0.77 -0.45 -3.32037 0.42452 0.00911058 0.00877709 5.04579e-06 0.00894941 1.57804e-07 272.338 
-0.85 -0.43 -2.34056 0.841007 0.00910315 0.00873933 -3.16756e-05 0.00893026 1.57592e-07 272.12 
-0.93 -0.41 -1.20854 1.38484 0.00909569 0.00873317 -4.51922e-05 0.00892642 1.57478e-07 272.2 
-0.75 -0.45 -3.62724 0.472363 0.00911377 0.00878536 8.66177e-06 0.00895591 1.58014e-07 272.173 
-0.83 -0.43 -2.67244 0.857563 0.00910734 0.00875157 -2.13069e-05 0.00893636 1.5761e-07 272.274 
-0.91 -0.41 -1.38558 1.30555 0.00910216 0.00873782 -4.15939e-05 0.00892944 1.5759e-07 272.099 
-0.99 -0.39 -0.130036 1.74157 0.00908342 0.00877938 -5.28456e-05 0.0089407 1.57858e-07 271.979 
-0.81 -0.43 -3.00478 0.976915 0.00911128 0.00873504 -1.89264e-05 0.00893504 1.5762e-07 272.217 
-0.89 -0.41 -1.70941 1.39655 0.00910114 0.0087291 -4.47058e-05 0.00892382 1.57411e-07 272.236 
-0.97 -0.39 -0.512929 1.43766 0.00909454 0.00877048 -5.49977e-05 0.00893879 1.57715e-07 272.168 
-0.79 -0.43 -3.35072 0.819369 0.00911928 0.00875561 -9.24258e-06 0.00894918 1.57906e-07 272.155 
-0.87 -0.41 -2.10047 1.29883 0.00910673 0.00872698 -3.99963e-05 0.00893007 1.57484e-07 272.301 
-0.95 -0.39 -0.880875 1.58982 0.00909576 0.00874976 -5.30654e-05 0.00892939 1.57486e-07 272.277 
-0.77 -0.43 -3.61193 0.770861 0.00912437 0.00877273 -4.34267e-07 0.00895774 1.58054e-07 272.159 
-0.85 -0.41 -2.55226 1.16922 0.00910412 0.00873399 -3.95669e-05 0.00892894 1.57609e-07 272.05 
-0.93 -0.39 -0.850811 1.62837 0.00910315 0.00873426 -4.72837e-05 0.0089293 1.57531e-07 272.196 
-0.83 -0.41 -2.77602 1.21209 0.00911263 0.00873807 -3.11828e-05 0.00892935 1.5758e-07 272.113 
-0.91 -0.39 -1.28209 1.77391 0.00910801 0.00873464 -4.75468e-05 0.00893402 1.57614e-07 272.197 
-0.99 -0.37 0.0137644 2.01539 0.00908865 0.0087871 -6.23672e-05 0.00894763 1.57967e-07 272.002 
-0.81 -0.41 -3.04722 1.3192 0.0091167 0.00873018 -2.0192e-05 0.00893209 1.57724e-07 271.948 
-0.89 -0.39 -1.62583 1.66897 0.00911596 0.00873508 -4.6591e-05 0.00893991 1.5767e-07 272.28 
-0.97 -0.37 -0.427571 1.94308 0.00909399 0.00876285 -6.0681e-05 0.00893843 1.57781e-07 272.043 
-0.79 -0.41 -3.39388 1.05591 0.00912903 0.00874998 -2.02027e-05 0.00895025 1.57955e-07 272.102 
-0.87 -0.39 -1.93627 1.66504 0.00911758 0.00871828 -4.5622e-05 0.0089291 1.5765e-07 271.984 
-0.95 -0.37 -0.81266 1.76807 0.00910132 0.00874616 -5.51732e-05 0.0089331 1.57679e-07 272.057 
-0.77 -0.41 -3.72989 1.10163 0.00914031 0.00877205 -1.41197e-05 0.00896857 1.58271e-07 272.115 
-0.85 -0.39 -2.31559 1.61091 0.00912764 0.00873474 -4.14471e-05 0.00894149 1.57883e-07 271.959 
-0.93 -0.37 -1.22439 1.90549 0.00910514 0.00873445 -5.7266e-05 0.00893149 1.5767e-07 272.023 
-0.75 -0.41 -3.95759 0.942085 0.00915333 0.0087784 -1.27388e-05 0.00897682 1.58355e-07 272.221 
-0.83 -0.39 -2.69983 1.52852 0.00912646 0.00872238 -3.72746e-05 0.00893122 1.57678e-07 272 
-0.91 -0.37 -1.44936 1.99454 0.00911695 0.00873113 -5.82749e-05 0.0089362 1.57628e-07 272.239 
-0.99 -0.35 -0.227273 2.20873 0.00909611 0.00878641 -7.42083e-05 0.00895247 1.58201e-07 271.747 
-0.81 -0.39 -3.02023 1.54049 0.00913828 0.00873256 -3.34322e-05 0.00894537 1.5781e-07 272.204 
-0.89 -0.37 -1.70954 2.01234 0.0091235 0.0087308 -5.00145e-05 0.0089385 1.57863e-07 271.904 
-0.97 -0.35 -0.410955 2.35725 0.00910307 0.00875418 -6.76625e-05 0.00894092 1.57858e-07 271.986 
-0.79 -0.39 -3.3209 1.45113 0.00914395 0.00874106 -2.71117e-05 0.00895338 1.5808e-07 271.982 
-0.87 -0.37 -2.12754 2.11459 0.00912546 0.00871943 -5.04704e-05 0.00893553 1.5773e-07 272.043 
-0.95 -0.35 -0.79341 2.12935 0.00911432 0.00874268 -6.49096e-05 0.00893816 1.57791e-07 272.017 
-0.77 -0.39 -3.74756 1.43245 0.00915178 0.00877196 -2.254e-05 0.00897344 1.58362e-07 272.106 
-0.85 -0.37 -2.5118 2.01213 0.00912811 0.00872664 -5.03494e-05 0.00893647 1.57839e-07 271.883 
-0.93 -0.35 -1.15152 2.22836 0.00912372 0.00873607 -6.40987e-05 0.00894025 1.57829e-07 272.015 
-0.83 -0.37 -2.9641 1.80199 0.00913631 0.00871689 -4.10919e-05 0.00893307 1.57745e-07 271.942 
-0.91 -0.35 -1.49255 2.34871 0.00912264 0.00873014 -5.77e-05 0.00893391 1.57649e-07 272.132 
-0.81 -0.37 -3.22248 1.80606 0.00914281 0.00872935 -3.54224e-05 0.00894659 1.57901e-07 272.083 
-0.89 -0.35 -1.89269 2.47495 0.00912396 0.0087223 -5.48241e-05 0.0089318 1.57743e-07 271.907 
-0.79 -0.37 -3.61672 1.85836 0.00914726 0.00873659 -3.26999e-05 0.00895897 1.58209e-07 271.929 
-0.87 -0.35 -2.24273 2.31863 0.00913408 0.00872153 -5.56506e-05 0.0089385 1.5782e-07 271.978 
-0.77 -0.37 -3.87886 1.90324 0.00915533 0.00876835 -2.86669e-05 0.00897056 1.5817e-07 272.349 
-0.85 -0.35 -2.59231 2.46618 0.00914063 0.00871866 -5.01014e-05 0.00894059 1.57929e-07 271.852 
-0.83 -0.35 -2.95602 2.18186 0.00914146 0.00871442 -4.78319e-05 0.00893622 1.57893e-07 271.783 
-0.81 -0.35 -3.36772 2.19422 0.00914793 0.00872696 -4.94308e-05 0.00894988 1.57979e-07 272.049 
-0.79 -0.35 -3.72072 2.19313 0.0091649 0.00873277 -4.38834e-05 0.00895941 1.58248e-07 271.876 
-0.77 -0.35 -3.95729 2.17886 0.00917578 0.00875784 -3.55872e-05 0.00897782 1.58319e-07 272.313 
-0.75 -0.35 -4.23186 2.1892 0.00918559 0.00876907 -2.83624e-05 0.00898643 1.5862e-07 272.056 
-0.75 -0.49 -2.71971 0.179382 0.00907965 0.00879409 2.84407e-05 0.00894019 1.57652e-07 272.319 
-0.75 -0.43 -3.86682 0.64986 0.00913497 0.00878136 -3.6485e-06 0.00896922 1.5814e-07 272.36 
-0.75 -0.39 -4.33427 1.33243 0.00915182 0.0087735 -2.05779e-05 0.00897436 1.58358e-07 272.14 
-0.75 -0.37 -4.22642 1.82444 0.00916028 0.00876984 -1.67979e-05 0.00897409 1.58366e-07 272.119 
-0.77 -0.33 -3.90693 2.4184 0.00916573 0.00874749 -4.75444e-05 0.00896519 1.58405e-07 271.782 
-0.73 -0.49 -3.0119 0.15066 0.00908571 0.00881262 2.58465e-05 0.00895528 1.57904e-07 272.343 
-0.73 -0.47 -3.34036 0.293545 0.00911224 0.00880375 2.42456e-05 0.00896968 1.58159e-07 272.341 
-0.73 -0.45 -3.83051 0.447038 0.00912764 0.00880425 1.27553e-05 0.00897394 1.58272e-07 272.277 
-0.73 -0.43 -4.19748 0.913822 0.00914403 0.00880159 4.96332e-07 0.00898263 1.5841e-07 272.302 
-0.73 -0.41 -4.3473 1.18867 0.00916292 0.00879832 -8.59719e-06 0.00898927 1.58604e-07 272.169 
-0.73 -0.39 -4.47711 1.47752 0.00915432 0.00878793 -8.98908e-06 0.00897541 1.58437e-07 272.037 
-0.73 -0.37 -4.76294 1.71745 0.00916526 0.00877615 -2.34352e-05 0.00897505 1.58483e-07 271.947 
-0.73 -0.35 -4.47096 1.94487 0.00918844 0.00878203 -2.58521e-05 0.00898867 1.58698e-07 271.991 
-0.81 -0.29 -3.29834 3.38356 0.00916103 0.00871981 -6.44121e-05 0.00894838 1.58099e-07 271.797 
-0.89 -0.27 -1.90986 3.8235 0.0091276 0.00869922 -8.82174e-05 0.00893059 1.57774e-07 271.817 
-0.97 -0.25 -0.48105 3.726 0.00908827 0.00872853 -0.000112024 0.00892038 1.57759e-07 271.53 
-0.83 -0.29 -2.8887 3.3907 0.00915591 0.00871797 -6.86855e-05 0.0089467 1.57856e-07 272.166 
-0.91 -0.27 -1.48288 3.91391 0.00912683 0.00870789 -8.98468e-05 0.00893224 1.57763e-07 271.886 
-0.99 -0.25 -0.142839 3.76827 0.00908066 0.00875787 -0.00011895 0.00893315 1.57972e-07 271.553 
-0.79 -0.29 -3.58654 3.1979 0.00916789 0.00872425 -6.19372e-05 0.00895265 1.58193e-07 271.765 
-0.87 -0.27 -2.34702 3.95663 0.00913551 0.00870491 -7.77493e-05 0.00893898 1.57879e-07 271.891 
-0.95 -0.25 -0.817525 3.87195 0.00910391 0.00871979 -0.000105383 0.00892711 1.57791e-07 271.681 
-0.77 -0.29 -3.98836 3.24127 0.00918073 0.00873756 -5.66221e-05 0.00896736 1.58339e-07 271.961 
-0.85 -0.27 -2.6736 3.7926 0.0091493 0.00871495 -7.58e-05 0.00894647 1.57962e-07 271.976 
-0.93 -0.25 -1.11831 4.13265 0.00910838 0.00870761 -0.000102936 0.00892298 1.57658e-07 271.785 
-0.75 -0.29 -4.50349 3.2138 0.0091896 0.00875749 -5.65641e-05 0.00898408 1.58611e-07 272.001 
-0.83 -0.27 -3.10704 3.65411 0.00915739 0.00871984 -7.21781e-05 0.00895112 1.57957e-07 272.124 
-0.91 -0.25 -1.48641 4.202 0.00911516 0.00869785 -9.78671e-05 0.00892212 1.57647e-07 271.777 
-0.99 -0.23 -0.0783687 3.97869 0.00906443 0.0087518 -0.000128657 0.00892022 1.57721e-07 271.592 
-0.81 -0.27 -3.45523 3.7603 0.00916161 0.00871478 -7.61337e-05 0.00894702 1.58022e-07 271.889 
-0.89 -0.25 -1.82834 4.20486 0.00912768 0.0086993 -8.9601e-05 0.00893336 1.57751e-07 271.94 
-0.97 -0.23 -0.356424 4.13094 0.00907932 0.00872977 -0.000121227 0.00891767 1.57663e-07 271.614 
-0.79 -0.27 -3.92445 3.60251 0.00917476 0.00872118 -6.94292e-05 0.00895224 1.5828e-07 271.603 
-0.87 -0.25 -2.16038 4.33374 0.00913539 0.00869899 -9.11091e-05 0.00893802 1.57949e-07 271.74 
-0.95 -0.23 -0.819725 4.26935 0.00908417 0.00871051 -0.000119578 0.00890865 1.5746e-07 271.689 
-0.77 -0.27 -4.27341 3.61045 0.00917479 0.0087356 -6.41692e-05 0.00896682 1.58486e-07 271.692 
-0.85 -0.25 -2.56838 4.16135 0.00914777 0.00871168 -8.93655e-05 0.00894602 1.57974e-07 271.942 
-0.93 -0.23 -1.19536 4.43455 0.00910265 0.00870336 -0.000112483 0.00891611 1.57499e-07 271.848 
-0.83 -0.25 -3.04307 4.14661 0.00915496 0.00870841 -8.12426e-05 0.0089398 1.58001e-07 271.706 
-0.91 -0.23 -1.51207 4.4538 0.00911243 0.00869066 -0.000102405 0.00891938 1.57528e-07 271.899 
-0.99 -0.21 -0.0566821 4.15842 0.00908549 0.00874593 -0.000136405 0.00892667 1.57806e-07 271.642 
-0.81 -0.25 -3.35918 4.12058 0.00916092 0.0087243 -7.44258e-05 0.008951 1.58132e-07 271.82 
-0.89 -0.23 -1.93299 4.77002 0.00912076 0.00869828 -0.000104294 0.00892434 1.57641e-07 271.855 
-0.97 -0.21 -0.28579 4.45866 0.00909363 0.00871506 -0.000132206 0.00891431 1.57608e-07 271.606 
-0.79 -0.25 -3.78179 4.12 0.0091538 0.00871018 -7.81595e-05 0.00894309 1.58156e-07 271.54 
-0.87 -0.23 -2.41323 4.62581 0.00913482 0.00869454 -0.00010453 0.00892672 1.57762e-07 271.719 
-0.95 -0.21 -0.633817 4.68257 0.00910263 0.00871297 -0.000125119 0.00891924 1.57619e-07 271.738 
-0.77 -0.25 -4.18782 3.8276 0.00916783 0.00873615 -7.65432e-05 0.00895823 1.58311e-07 271.732 
-0.85 -0.23 -2.68639 4.62503 0.00913946 0.00870648 -9.38772e-05 0.00893318 1.57838e-07 271.785 
-0.93 -0.21 -1.1412 4.86336 0.00910258 0.00869261 -0.000123456 0.00891222 1.57574e-07 271.602 
-0.83 -0.23 -3.06525 4.57938 0.00913932 0.00869798 -8.60918e-05 0.00892956 1.57794e-07 271.75 
-0.91 -0.21 -1.49048 4.80021 0.00911187 0.00868622 -0.000117011 0.00891594 1.57578e-07 271.708 
-0.99 -0.19 -0.207502 4.43252 0.00907546 0.00873635 -0.000150107 0.00891742 1.57598e-07 271.718 
-0.81 -0.23 -3.52584 4.35751 0.00914923 0.00871818 -8.16359e-05 0.0089465 1.58025e-07 271.868 
-0.89 -0.21 -1.86692 5.22454 0.00912819 0.00870248 -0.000112215 0.00893153 1.57729e-07 271.922 
-0.97 -0.19 -0.52608 4.7206 0.00908388 0.00870541 -0.000137576 0.00890315 1.57401e-07 271.624 
-0.79 -0.23 -3.68034 4.49551 0.0091625 0.00871914 -7.86056e-05 0.00895448 1.58172e-07 271.857 
-0.87 -0.21 -2.19737 5.03968 0.00912931 0.0086812 -0.000108578 0.00892111 1.57738e-07 271.59 
-0.95 -0.19 -0.79289 5.05063 0.00909522 0.00871103 -0.000133528 0.00891268 1.57559e-07 271.641 
-0.77 -0.23 -4.02291 4.24235 0.00916118 0.00872947 -8.57536e-05 0.00895214 1.58244e-07 271.663 
-0.85 -0.21 -2.76566 4.99503 0.00913528 0.00869852 -9.77946e-05 0.00893036 1.57791e-07 271.78 
-0.93 -0.19 -0.881922 5.19139 0.00910492 0.00868817 -0.000127683 0.00891257 1.57597e-07 271.572 
-0.75 -0.23 -4.5323 4.07701 0.00917156 0.00874239 -8.25976e-05 0.00896749 1.58467e-07 271.746 
-0.83 -0.21 -3.10465 4.81284 0.009148 0.00869802 -9.28885e-05 0.00893517 1.57802e-07 271.907 
-0.91 -0.19 -1.3003 5.32071 0.0091076 0.00868154 -0.00012575 0.00890823 1.57451e-07 271.691 
-0.81 -0.21 -3.3378 4.73365 0.00915169 0.0087106 -8.79861e-05 0.00894812 1.58108e-07 271.774 
-0.89 -0.19 -1.86176 5.55005 0.00911278 0.00869256 -0.000117123 0.008919 1.57569e-07 271.817 
-0.79 -0.21 -3.73365 4.78971 0.00915261 0.00871985 -8.71074e-05 0.00895198 1.5826e-07 271.631 
-0.87 -0.19 -2.34066 5.4628 0.00911536 0.0086817 -0.000109462 0.00891753 1.57661e-07 271.613 
-0.77 -0.21 -4.16108 4.71409 0.00916428 0.00873392 -9.04966e-05 0.00896082 1.58363e-07 271.722 
-0.85 -0.19 -2.62656 5.4147 0.00911914 0.00868651 -0.000108755 0.00891767 1.57596e-07 271.728 
-0.75 -0.21 -4.59729 4.55267 0.00916612 0.00874065 -9.32617e-05 0.00896507 1.58378e-07 271.825 
-0.83 -0.19 -2.95596 5.11304 0.00911972 0.00869688 -0.00010437 0.00892517 1.57754e-07 271.686 
-0.81 -0.19 -3.31376 5.17239 0.00913841 0.00869922 -9.77308e-05 0.00893352 1.57927e-07 271.641 
-0.79 -0.19 -3.81722 5.13859 0.00915736 0.00873193 -9.72255e-05 0.0089607 1.58287e-07 271.848 
-0.77 -0.19 -4.11945 5.18016 0.00916765 0.00872953 -0.000101077 0.00896245 1.58376e-07 271.75 
-0.99 -0.33 -0.0875592 2.461 0.00909737 0.00878153 -8.22677e-05 0.00894793 1.58015e-07 271.928 
-0.97 -0.33 -0.439319 2.60337 0.00911298 0.0087538 -8.10816e-05 0.00894379 1.57914e-07 271.977 
-0.91 -0.33 -1.54766 2.76809 0.00914084 0.00872302 -6.55333e-05 0.00893859 1.5771e-07 272.169 
-0.99 -0.31 -0.208307 2.81194 0.00909304 0.00877416 -9.57951e-05 0.00894213 1.5798e-07 271.811 
-0.97 -0.31 -0.433507 2.86854 0.00909856 0.00875201 -8.90842e-05 0.00893566 1.57974e-07 271.627 
-0.87 -0.33 -2.25589 2.7918 0.00915018 0.00872442 -5.71818e-05 0.00894874 1.57971e-07 272.029 
-0.95 -0.31 -0.801629 3.02377 0.00910774 0.00872627 -8.41246e-05 0.00892783 1.57639e-07 271.965 
-0.85 -0.33 -2.50992 2.71681 0.00914528 0.0087123 -5.39997e-05 0.00893921 1.57742e-07 272.133 
-0.93 -0.31 -1.1675 2.95447 0.00912331 0.00873121 -8.28936e-05 0.00894044 1.57756e-07 272.147 
-0.91 -0.31 -1.48047 3.01479 0.00913256 0.00871536 -6.90141e-05 0.00894116 1.57725e-07 272.222 
-0.99 -0.29 -0.12041 3.10561 0.00908667 0.00877198 -0.000102801 0.00894289 1.57992e-07 271.815 
-0.81 -0.33 -3.39758 2.59296 0.00915905 0.00872807 -5.27233e-05 0.00895378 1.58151e-07 271.871 
-0.89 -0.31 -1.79045 3.18366 0.00913708 0.00871281 -6.43002e-05 0.00893727 1.57823e-07 271.936 
-0.97 -0.29 -0.395729 3.14924 0.00909761 0.00874378 -9.75113e-05 0.0089313 1.57769e-07 271.847 
-0.87 -0.31 -2.23968 3.13262 0.00914346 0.00871886 -6.2108e-05 0.00894038 1.57916e-07 271.87 
-0.95 -0.29 -0.735322 3.36601 0.0091061 0.00872276 -9.63637e-05 0.00892661 1.57604e-07 271.987 
-0.85 -0.31 -2.56152 2.96834 0.00915354 0.0087132 -5.91745e-05 0.00894658 1.57985e-07 271.939 
-0.93 -0.29 -1.06392 3.26998 0.009111 0.00872049 -8.6633e-05 0.00892651 1.57665e-07 271.879 
-0.83 -0.31 -2.87805 3.04441 0.00915956 0.00871861 -5.77313e-05 0.00895138 1.57986e-07 272.082 
-0.91 -0.29 -1.37906 3.46741 0.00911194 0.00870582 -8.09636e-05 0.00891953 1.57552e-07 271.862 
-0.99 -0.27 -0.145641 3.42963 0.00909893 0.0087627 -0.000109364 0.00894432 1.58171e-07 271.55 
-0.81 -0.31 -3.21352 3.01762 0.0091638 0.0087217 -5.86853e-05 0.00895857 1.58081e-07 272.138 
-0.89 -0.29 -1.72586 3.4987 0.00912669 0.00871087 -7.64381e-05 0.00893015 1.57672e-07 271.979 
-0.97 -0.27 -0.51821 3.40389 0.00910367 0.00874083 -0.000102793 0.00893684 1.57865e-07 271.85 
-0.79 -0.31 -3.69967 2.73342 0.00916851 0.00872896 -5.66114e-05 0.00895644 1.5822e-07 271.834 
-0.87 -0.29 -2.04208 3.54279 0.00914039 0.00871236 -6.64202e-05 0.00894017 1.57905e-07 271.881 
-0.95 -0.27 -0.65275 3.66522 0.0091047 0.008719 -9.83032e-05 0.00892459 1.57593e-07 271.946 
-0.77 -0.31 -4.17161 2.83576 0.0091701 0.00874079 -5.15196e-05 0.00895676 1.58227e-07 271.832 
-0.85 -0.29 -2.58088 3.35658 0.00914642 0.00871161 -6.63066e-05 0.00893944 1.57872e-07 271.917 
-0.93 -0.27 -1.04879 3.59691 0.00911224 0.00871118 -9.28228e-05 0.00892187 1.57423e-07 272.157 
-0.95 -0.33 -0.715324 2.5954 0.00912053 0.00873112 -7.3647e-05 0.00893885 1.57824e-07 271.981 
-0.93 -0.33 -1.12532 2.58432 0.00913057 0.00873661 -6.62758e-05 0.0089416 1.5781e-07 272.09 
-0.89 -0.33 -1.96403 2.75015 0.00914927 0.00871757 -6.0513e-05 0.00894189 1.57827e-07 272.068 
-0.83 -0.33 -2.90566 2.63773 0.00914962 0.00871266 -5.46187e-05 0.00894631 1.57985e-07 271.93 
-0.75 -0.31 -4.54518 2.77218 0.00917319 0.00875372 -4.74081e-05 0.00897399 1.58437e-07 271.993 
-0.75 -0.27 -4.46864 3.67994 0.00918811 0.0087518 -6.64043e-05 0.00898032 1.58657e-07 271.808 
-0.75 -0.25 -4.38566 3.78015 0.00917501 0.00874782 -6.98408e-05 0.0089684 1.58465e-07 271.777 
-0.75 -0.19 -4.48312 4.96285 0.00916931 0.00874003 -9.2511e-05 0.00896696 1.58459e-07 271.742 
-0.79 -0.33 -3.5933 2.41935 0.00915866 0.00873017 -5.24135e-05 0.00895491 1.58202e-07 271.819 
-0.75 -0.33 -4.24024 2.5052 0.0091759 0.00875944 -3.951e-05 0.008975 1.58545e-07 271.839 
-0.81 -0.17 -3.46623 5.53159 0.00912505 0.00869431 -0.000113838 0.00892183 1.57775e-07 271.548 
-0.79 -0.17 -3.81741 5.58502 0.00913936 0.00873039 -0.000115277 0.00895239 1.58174e-07 271.79 
-0.75 -0.17 -4.41677 5.42268 0.00916359 0.00873979 -0.000104639 0.00896104 1.58272e-07 271.885 
-0.73 -0.31 -4.88838 2.91624 0.00919119 0.00877824 -5.00411e-05 0.00899606 1.58802e-07 272.036 
-0.73 -0.29 -4.75274 3.16145 0.00918687 0.00877352 -5.39198e-05 0.00899231 1.5882e-07 271.893 
-0.73 -0.27 -4.8846 3.33259 0.00919869 0.00877811 -6.41379e-05 0.00899915 1.58875e-07 272.004 
-0.73 -0.25 -4.61705 3.82298 0.0091806 0.00877134 -6.71734e-05 0.00898557 1.58782e-07 271.753 
-0.73 -0.23 -4.87895 4.19437 0.00918474 0.0087714 -7.59988e-05 0.00898759 1.58837e-07 271.72 
-0.73 -0.21 -4.87437 4.41497 0.00917846 0.00876421 -9.34858e-05 0.00898493 1.58659e-07 271.945 
-0.73 -0.19 -4.88001 4.69868 0.00916932 0.00877266 -9.96135e-05 0.00897875 1.58589e-07 271.877 
-0.79 -0.05 -3.40324 7.62163 0.00906147 0.00872109 -0.000152995 0.00890536 1.5744e-07 271.623 
-0.87 -0.03 -2.19581 8.2846 0.0090049 0.00863152 -0.000174528 0.00883644 1.56372e-07 271.361 
-0.83 -0.05 -2.74899 8.00944 0.00903736 0.00868273 -0.000153193 0.00888236 1.571e-07 271.508 
-0.91 -0.03 -1.54389 8.30115 0.00899459 0.00862618 -0.000188499 0.00883289 1.56244e-07 271.475 
-0.81 -0.05 -3.00799 7.65498 0.00905459 0.00869858 -0.000148063 0.00889699 1.57321e-07 271.574 
-0.89 -0.03 -1.8367 8.28006 0.00900056 0.0086313 -0.000178174 0.00883465 1.56357e-07 271.333 
-0.77 -0.05 -3.7318 7.29213 0.00906648 0.00872267 -0.000155526 0.00891199 1.57537e-07 271.658 
-0.85 -0.03 -2.54053 8.19631 0.00900921 0.00864798 -0.000175047 0.0088512 1.566e-07 271.419 
-0.75 -0.05 -3.98842 7.10265 0.00907014 0.00874934 -0.000158126 0.00892233 1.57674e-07 271.737 
-0.83 -0.03 -2.7303 8.33071 0.00902599 0.00867235 -0.000164897 0.00886988 1.56934e-07 271.414 
-0.81 -0.03 -3.1367 7.92012 0.00903432 0.00869656 -0.000159549 0.00888166 1.57081e-07 271.52 
-0.79 -0.03 -3.24479 8.04583 0.00904501 0.00872063 -0.000158926 0.00889909 1.57428e-07 271.453 
-0.77 -0.03 -3.68969 7.57712 0.00905406 0.00872591 -0.000158988 0.00890215 1.57433e-07 271.538 
-0.95 -0.17 -0.673039 5.22069 0.00907939 0.00869687 -0.000143247 0.00889978 1.57405e-07 271.513 
-0.99 -0.15 -0.126852 4.94223 0.00903549 0.00870675 -0.000172332 0.00888989 1.57178e-07 271.603 
-0.89 -0.17 -2.03488 5.88869 0.00910403 0.00867551 -0.000125128 0.00890804 1.57337e-07 271.883 
-0.97 -0.15 -0.469257 5.42914 0.00905988 0.00870319 -0.00016554 0.00889335 1.57228e-07 271.622 
-0.95 -0.15 -0.862488 5.644 0.00907118 0.00868401 -0.000151426 0.00888834 1.57196e-07 271.524 
-0.93 -0.15 -1.22094 6.07784 0.00907567 0.0086719 -0.000140969 0.00888828 1.57275e-07 271.386 
-0.83 -0.17 -3.0488 5.57296 0.00912472 0.00870189 -0.000108966 0.0089309 1.57808e-07 271.766 
-0.91 -0.15 -1.49591 6.16871 0.00908759 0.00868144 -0.000138039 0.00890486 1.57407e-07 271.665 
-0.99 -0.13 -0.23584 5.32753 0.0090397 0.00870405 -0.000188578 0.0088877 1.57093e-07 271.683 
-0.89 -0.15 -1.68874 6.21462 0.00908663 0.00866142 -0.000129127 0.00889139 1.57185e-07 271.637 
-0.97 -0.13 -0.520172 5.80409 0.00904747 0.008685 -0.000174151 0.00888313 1.57121e-07 271.495 
-0.87 -0.15 -2.36203 6.14905 0.00909664 0.00867993 -0.000125839 0.0089097 1.57417e-07 271.796 
-0.95 -0.13 -0.994708 6.08495 0.0090597 0.00867119 -0.000163119 0.00888069 1.57136e-07 271.394 
-0.77 -0.17 -4.15138 5.32133 0.00915281 0.00872417 -0.000104231 0.00895581 1.58233e-07 271.793 
-0.85 -0.15 -2.69617 6.26341 0.00911383 0.00867703 -0.000117903 0.00891261 1.57631e-07 271.514 
-0.93 -0.13 -1.2021 6.21192 0.00907898 0.00867208 -0.000155817 0.00889479 1.57241e-07 271.644 
-0.83 -0.15 -3.00371 5.91847 0.00912421 0.00869548 -0.000116866 0.0089243 1.57788e-07 271.6 
-0.91 -0.13 -1.54607 6.46779 0.00908184 0.00866351 -0.000145045 0.00889216 1.57251e-07 271.547 
-0.99 -0.11 -0.103974 5.66216 0.00904135 0.00869448 -0.000186777 0.00888386 1.56974e-07 271.772 
-0.81 -0.15 -3.41207 5.90927 0.00912935 0.0087085 -0.000119925 0.00893178 1.57929e-07 271.586 
-0.89 -0.13 -1.92254 6.67224 0.00908917 0.0086656 -0.000132581 0.00889374 1.5727e-07 271.561 
-0.97 -0.11 -0.537011 6.20243 0.00903508 0.00867375 -0.000180323 0.0088735 1.56957e-07 271.484 
-0.79 -0.15 -3.73578 5.83879 0.00912833 0.00872074 -0.000122166 0.00894326 1.58135e-07 271.58 
-0.87 -0.13 -2.33187 6.71222 0.00909479 0.00866919 -0.00013543 0.0088991 1.57401e-07 271.499 
-0.95 -0.11 -0.786634 6.3778 0.00904305 0.0086676 -0.000175911 0.00887269 1.57071e-07 271.262 
-0.77 -0.15 -4.07656 5.70117 0.00913186 0.00872065 -0.000116232 0.00894237 1.5815e-07 271.527 
-0.85 -0.13 -2.67856 6.39613 0.00910028 0.00867474 -0.000128185 0.00890347 1.57498e-07 271.466 
-0.93 -0.11 -1.28006 6.68954 0.00905197 0.00865791 -0.00016567 0.00887295 1.57035e-07 271.333 
-0.75 -0.15 -4.3505 5.54503 0.00914252 0.00874084 -0.000113493 0.00895464 1.58295e-07 271.651 
-0.83 -0.13 -2.9555 6.33874 0.00910971 0.00869217 -0.000129124 0.00891537 1.57511e-07 271.806 
-0.91 -0.11 -1.66004 6.82815 0.00905927 0.00865021 -0.000151776 0.00887583 1.57054e-07 271.388 
-0.99 -0.09 -0.0998453 5.87346 0.00900562 0.00868367 -0.000199427 0.0088581 1.5671e-07 271.441 
-0.81 -0.13 -3.45596 6.33328 0.00911429 0.00870735 -0.00012193 0.0089279 1.57887e-07 271.54 
-0.89 -0.11 -2.00271 7.05859 0.00907465 0.00866132 -0.000145222 0.00888693 1.57298e-07 271.306 
-0.97 -0.09 -0.328866 6.7013 0.00902836 0.00866678 -0.000189191 0.00886698 1.56821e-07 271.52 
-0.79 -0.13 -3.73295 6.19768 0.0091222 0.00871812 -0.000121448 0.00893588 1.57933e-07 271.702 
-0.87 -0.11 -2.22316 6.99199 0.00908335 0.00866496 -0.000139343 0.00889444 1.57354e-07 271.439 
-0.95 -0.09 -0.816991 6.76534 0.0090374 0.00865971 -0.000179881 0.00887189 1.56845e-07 271.628 
-0.77 -0.13 -3.98109 6.02116 0.00912308 0.00871607 -0.000120433 0.00893224 1.57998e-07 271.481 
-0.85 -0.11 -2.62051 6.83334 0.00908584 0.0086722 -0.000134149 0.00889414 1.57434e-07 271.292 
-0.93 -0.09 -1.13406 6.97148 0.00904068 0.00864765 -0.000172317 0.00886855 1.56991e-07 271.273 
-0.83 -0.11 -3.12128 6.77301 0.00908743 0.00868672 -0.000131076 0.00890626 1.57542e-07 271.475 
-0.91 -0.09 -1.44866 7.21719 0.00904431 0.00864078 -0.000161534 0.00886175 1.56889e-07 271.243 
-0.99 -0.07 -0.224413 6.14979 0.00900561 0.00867757 -0.000204432 0.00885777 1.56673e-07 271.495 
-0.81 -0.11 -3.39538 6.55879 0.00909721 0.00870843 -0.000131751 0.00892043 1.57555e-07 271.884 
-0.89 -0.09 -1.86979 7.40742 0.00905521 0.00865415 -0.000158672 0.00887558 1.57107e-07 271.288 
-0.97 -0.07 -0.533144 6.98107 0.00899907 0.00865551 -0.000201989 0.00884697 1.5649e-07 271.479 
-0.79 -0.11 -3.64649 6.55272 0.00910433 0.00871316 -0.000130536 0.00892633 1.57853e-07 271.55 
-0.87 -0.09 -2.07992 7.20677 0.00906957 0.00865778 -0.000148373 0.0088861 1.5728e-07 271.311 
-0.95 -0.07 -0.763948 7.16727 0.00900035 0.00865056 -0.000186823 0.00884959 1.56512e-07 271.522 
-0.77 -0.11 -4.01936 6.24294 0.00912146 0.00871523 -0.000132551 0.00893249 1.57964e-07 271.546 
-0.85 -0.09 -2.37392 7.24923 0.00907945 0.00866833 -0.000142053 0.00889039 1.57254e-07 271.488 
-0.93 -0.07 -1.2183 7.41327 0.00901246 0.00863543 -0.000179444 0.00885129 1.56671e-07 271.3 
-0.75 -0.11 -4.39815 6.1498 0.00913675 0.00874974 -0.000132583 0.00895711 1.58338e-07 271.652 
-0.83 -0.09 -2.69738 7.19792 0.00908652 0.00868395 -0.000139132 0.0089034 1.57452e-07 271.544 
-0.91 -0.07 -1.58787 7.58288 0.00902724 0.00863734 -0.000173759 0.00885802 1.56695e-07 271.464 
-0.99 -0.05 -0.142128 6.59518 0.00898139 0.00866847 -0.000215424 0.00884099 1.56412e-07 271.432 
-0.81 -0.09 -3.2256 6.97897 0.00909529 0.00871096 -0.000139274 0.00891802 1.57679e-07 271.596 
-0.89 -0.07 -1.89186 7.65417 0.0090376 0.0086461 -0.000168009 0.00886835 1.56953e-07 271.334 
-0.97 -0.05 -0.579949 7.15731 0.00899855 0.00864708 -0.0002033 0.00884706 1.56545e-07 271.387 
-0.79 -0.09 -3.68231 6.85658 0.00909723 0.00871376 -0.000137429 0.00891972 1.57715e-07 271.587 
-0.87 -0.07 -2.27091 7.61256 0.00904213 0.00864514 -0.000157794 0.00886329 1.56776e-07 271.486 
-0.95 -0.05 -0.839957 7.57178 0.00900641 0.00864187 -0.000194296 0.00884579 1.56506e-07 271.417 
-0.77 -0.09 -4.04733 6.70522 0.00909618 0.00871858 -0.000136844 0.0089219 1.57788e-07 271.528 
-0.85 -0.07 -2.5343 7.46743 0.00905126 0.00865992 -0.000150377 0.00887827 1.56996e-07 271.562 
-0.93 -0.05 -1.21416 7.85068 0.00900441 0.00862742 -0.000182431 0.00884152 1.56454e-07 271.375 
-0.75 -0.09 -4.34029 6.551 0.009094 0.00874555 -0.000143638 0.0089341 1.57964e-07 271.597 
-0.83 -0.07 -2.99274 7.74351 0.00906138 0.00868849 -0.000144991 0.00889087 1.57082e-07 271.799 
-0.91 -0.05 -1.59488 7.96647 0.00900603 0.00863138 -0.000177849 0.00884213 1.56464e-07 271.376 
-0.99 -0.03 -0.228153 6.99856 0.00895732 0.008653 -0.000227226 0.00882266 1.56112e-07 271.389 
-0.81 -0.07 -3.26946 7.40958 0.00905952 0.00870184 -0.000144984 0.00889891 1.57291e-07 271.683 
-0.89 -0.05 -1.85336 7.98832 0.00900763 0.00863732 -0.000174751 0.00884706 1.56584e-07 271.32 
-0.97 -0.03 -0.501152 7.47225 0.0089659 0.00863281 -0.000210431 0.0088211 1.56221e-07 271.152 