ITEM: TIMESTEP
842500
ITEM: NUMBER OF CELLS
5000
ITEM: BOX BOUNDS ss ss pp
-1 1
-0.5 0.5
-0.5 0.5
ITEM: CELLS xc yc f_U[*] f_V[*] f_Tau[1] f_Tau[2] f_Tau[3] f_Press[*] f_Mrho[*] f_Ttra[*] 
-0.99 -0.49 -0.0629283 0.160786 0.00899146 0.00875152 -1.99348e-05 0.00888255 1.56799e-07 272.034 
-0.97 -0.49 -0.446916 0.16525 0.0089673 0.00875672 -3.32077e-05 0.00887339 1.56434e-07 272.388 
-0.95 -0.49 -0.732619 0.0975983 0.0089775 0.00874686 -3.47234e-05 0.00887862 1.56964e-07 271.63 
-0.93 -0.49 -0.911078 0.150081 0.0089949 0.00876155 -3.21556e-05 0.00889643 1.57018e-07 272.079 
-0.91 -0.49 -1.16839 -0.0761841 0.00900023 0.00870227 -1.68087e-05 0.0088641 1.56654e-07 271.72 
-0.99 -0.47 -0.0960052 0.292044 0.00901105 0.00875595 -1.87411e-05 0.00889211 1.56738e-07 272.434 
-0.89 -0.49 -1.58343 0.366904 0.00904597 0.00873061 -2.83179e-05 0.00890505 1.57052e-07 272.284 
-0.97 -0.47 -0.0942802 0.6581 0.00902194 0.00877329 -3.97717e-05 0.00890525 1.56737e-07 272.839 
-0.87 -0.49 -1.9178 -0.0151248 0.00906012 0.00878114 -8.05236e-06 0.00892053 1.57414e-07 272.13 
-0.95 -0.47 -0.619393 0.607926 0.00903177 0.00876012 -4.06821e-05 0.00890553 1.5715e-07 272.129 
-0.85 -0.49 -1.9022 0.208738 0.0090657 0.00878997 -2.9023e-06 0.00892938 1.57484e-07 272.28 
-0.93 -0.47 -1.29195 0.445604 0.00903845 0.00873978 -3.50231e-05 0.00889926 1.56893e-07 272.384 
-0.83 -0.49 -1.95328 0.0347783 0.00907086 0.00878529 8.40055e-06 0.0089335 1.57573e-07 272.251 
-0.91 -0.47 -1.55763 0.374594 0.00903782 0.00872195 -3.36327e-05 0.00890465 1.57232e-07 271.96 
-0.99 -0.45 -0.218862 0.658305 0.0090522 0.00877065 -4.02024e-05 0.00892544 1.57367e-07 272.362 
-0.81 -0.49 -2.17076 0.330103 0.00906529 0.00876712 -1.38076e-06 0.00891961 1.57513e-07 271.931 
-0.89 -0.47 -2.10963 0.752705 0.00902663 0.00872855 -5.44346e-05 0.00889658 1.56913e-07 272.267 
-0.97 -0.45 -0.627349 0.68626 0.00906681 0.00877256 -3.64182e-05 0.00894099 1.57433e-07 272.723 
-0.79 -0.49 -2.77775 0.17192 0.0090643 0.00877108 2.25422e-05 0.00892763 1.5776e-07 271.749 
-0.87 -0.47 -2.31112 0.188893 0.00904918 0.00875132 -2.84643e-05 0.00892345 1.57288e-07 272.438 
-0.95 -0.45 -0.761383 1.17521 0.00905287 0.00876918 -4.58355e-05 0.00892298 1.57257e-07 272.477 
-0.77 -0.49 -2.97041 -0.0411991 0.00905838 0.00878289 3.65616e-05 0.00893438 1.5757e-07 272.284 
-0.85 -0.47 -2.33144 0.163705 0.00907201 0.00878538 -7.72233e-06 0.00894037 1.57508e-07 272.574 
-0.93 -0.45 -0.979092 0.791412 0.00905383 0.00870392 -4.44103e-05 0.00889604 1.57058e-07 271.998 
-0.83 -0.47 -2.69863 0.457333 0.00907548 0.00877298 1.11523e-06 0.00893026 1.57395e-07 272.461 
-0.91 -0.45 -1.56586 1.00649 0.0090617 0.00874769 -2.48477e-05 0.00891995 1.5774e-07 271.551 
-0.99 -0.43 -0.476952 1.24521 0.00906986 0.0087676 -4.0144e-05 0.00892999 1.57439e-07 272.377 
-0.81 -0.47 -2.93878 0.47898 0.00908165 0.00877188 9.0675e-06 0.00893941 1.57731e-07 272.159 
-0.89 -0.45 -1.80614 0.758621 0.00905931 0.00872766 -4.36812e-05 0.00889529 1.57132e-07 271.848 
-0.97 -0.43 -0.707998 0.849426 0.0090783 0.0087628 -4.11282e-05 0.008933 1.57429e-07 272.486 
-0.79 -0.47 -3.02527 0.600315 0.00908353 0.00873626 2.38766e-05 0.00892558 1.57436e-07 272.247 
-0.87 -0.45 -1.87327 0.505245 0.009045 0.00873572 -3.54865e-05 0.00889647 1.57001e-07 272.11 
-0.95 -0.43 -0.829519 1.2177 0.00910077 0.00878258 -3.94203e-05 0.00894314 1.57847e-07 272.072 
-0.77 -0.47 -2.96008 -0.0874707 0.0090962 0.00880852 2.46026e-05 0.00895934 1.58241e-07 271.886 
-0.85 -0.45 -2.44082 0.390513 0.00905506 0.00876703 -2.17637e-05 0.00892139 1.57211e-07 272.508 
-0.93 -0.43 -1.21188 1.24658 0.00910326 0.00871315 -4.65045e-05 0.00892179 1.57377e-07 272.232 
-0.75 -0.47 -3.07821 -0.195461 0.00909245 0.00880603 1.08705e-05 0.00896172 1.57754e-07 272.799 
-0.83 -0.45 -2.60431 0.583869 0.00908151 0.00876374 -1.86562e-05 0.00893207 1.57487e-07 272.356 
-0.91 -0.43 -1.53939 1.0708 0.0091046 0.00872858 -4.13499e-05 0.00891971 1.57541e-07 271.887 
-0.99 -0.41 -0.169967 1.67927 0.00909733 0.00878504 -4.88695e-05 0.00895351 1.57956e-07 272.199 
-0.81 -0.45 -2.7576 0.816057 0.00909665 0.00874673 -4.80197e-06 0.00894206 1.5747e-07 272.691 
-0.89 -0.43 -1.34437 1.06327 0.00910552 0.00873098 -3.16626e-05 0.008916 1.57257e-07 272.264 
-0.97 -0.41 -0.645096 1.27054 0.00910536 0.00876895 -5.99505e-05 0.00894114 1.57459e-07 272.682 
-0.79 -0.45 -2.91563 0.752956 0.00910375 0.00874362 1.51221e-05 0.00893618 1.57797e-07 271.946 
-0.87 -0.43 -1.56933 0.629594 0.00911077 0.0087405 -4.25487e-05 0.00893397 1.57553e-07 272.3 
-0.95 -0.41 -0.691507 1.3891 0.00910179 0.00876614 -3.89296e-05 0.00893689 1.57541e-07 272.41 
-0.77 -0.45 -3.28887 0.0656813 0.00912986 0.00880203 7.09217e-06 0.00897351 1.58312e-07 272.195 
-0.85 -0.43 -1.86701 0.971493 0.0091123 0.0087617 -2.7673e-05 0.00894434 1.57623e-07 272.495 
-0.93 -0.41 -1.2797 1.86313 0.00909096 0.00871189 -3.83957e-05 0.00891555 1.57302e-07 272.173 
-0.75 -0.45 -3.70473 0.264734 0.0091367 0.00881845 1.55699e-05 0.0089799 1.58596e-07 271.9 
-0.83 -0.43 -2.47336 1.04873 0.0091002 0.00876121 -1.41746e-05 0.00894451 1.57486e-07 272.738 
-0.91 -0.41 -1.2225 1.11473 0.0090969 0.00872911 -3.9733e-05 0.00891922 1.57534e-07 271.884 
-0.99 -0.39 -0.341916 2.25152 0.00909799 0.00878847 -5.89056e-05 0.00895782 1.58078e-07 272.12 
-0.81 -0.43 -2.99135 0.81254 0.00909949 0.00872801 -6.38016e-06 0.00894194 1.57681e-07 272.322 
-0.89 -0.41 -1.63381 1.0958 0.00910261 0.00874423 -4.2373e-05 0.00893486 1.5735e-07 272.679 
-0.97 -0.39 -0.709724 1.43741 0.00910081 0.00876341 -4.71732e-05 0.00894115 1.57752e-07 272.175 
-0.79 -0.43 -3.09605 0.839993 0.009125 0.0087521 -9.4362e-06 0.00895634 1.58042e-07 272.137 
-0.87 -0.41 -2.0702 1.04005 0.00909431 0.00872581 -3.02826e-05 0.0089285 1.57286e-07 272.596 
-0.95 -0.39 -1.083 1.40708 0.00908759 0.00874083 -3.64157e-05 0.00891698 1.57136e-07 272.504 
-0.77 -0.43 -3.5236 0.823286 0.00914819 0.00879253 -8.82042e-06 0.0089841 1.58325e-07 272.494 
-0.85 -0.41 -2.37699 1.16885 0.00910984 0.00874944 -3.59437e-05 0.00893882 1.57646e-07 272.288 
-0.93 -0.39 -0.355156 1.95737 0.00911011 0.00873518 -2.99337e-05 0.00893049 1.57453e-07 272.367 
-0.83 -0.41 -2.4808 1.55773 0.00913811 0.0087504 -2.63676e-05 0.00895485 1.5776e-07 272.579 
-0.91 -0.39 -1.07152 1.65698 0.00910321 0.0087307 -6.05926e-05 0.00893049 1.57412e-07 272.439 
-0.99 -0.37 0.133972 2.53577 0.00911279 0.00879804 -4.94902e-05 0.00897631 1.58579e-07 271.82 
-0.81 -0.41 -2.68043 1.28782 0.00914234 0.00873367 -1.65677e-05 0.00896004 1.58197e-07 271.984 
-0.89 -0.39 -1.40621 1.43794 0.00910836 0.00873679 -4.48219e-05 0.00895221 1.57746e-07 272.523 
-0.97 -0.37 -0.26406 1.97952 0.00910722 0.00874953 -4.44736e-05 0.00894938 1.57969e-07 272.051 
-0.79 -0.41 -3.19031 1.11132 0.0091559 0.00876713 -2.73921e-05 0.008969 1.58353e-07 271.988 
-0.87 -0.39 -1.68287 1.2209 0.00912993 0.00873982 -4.83737e-05 0.00894924 1.57455e-07 272.935 
-0.95 -0.37 -0.740005 1.6198 0.00913307 0.00873214 -5.01916e-05 0.00893341 1.57693e-07 272.042 
-0.77 -0.41 -4.02006 1.16246 0.0091562 0.0087847 -2.60387e-05 0.00898081 1.58485e-07 272.119 
-0.85 -0.39 -2.23668 1.56198 0.00914322 0.00875057 -5.73194e-05 0.00896152 1.58119e-07 272.163 
-0.93 -0.37 -1.20894 1.90584 0.00914239 0.00873668 -4.93358e-05 0.00895919 1.57881e-07 272.502 
-0.75 -0.41 -4.19165 1.29733 0.00917277 0.00878554 -1.20554e-05 0.00900046 1.58674e-07 272.389 
-0.83 -0.39 -2.46558 1.87774 0.00914375 0.00872411 -4.3173e-05 0.00895083 1.58137e-07 271.806 
-0.91 -0.37 -1.40017 2.22766 0.00915342 0.0087396 -5.11695e-05 0.00896354 1.57838e-07 272.709 
-0.99 -0.35 -0.0551347 2.48752 0.00908832 0.00877861 -7.01657e-05 0.00895843 1.58247e-07 271.849 
-0.81 -0.39 -2.70334 1.38113 0.00917646 0.00874052 -3.16513e-05 0.00897558 1.58124e-07 272.58 
-0.89 -0.37 -1.73925 1.67238 0.0091613 0.00873002 -5.55312e-05 0.00895467 1.57645e-07 272.772 
-0.97 -0.35 -0.335668 2.58524 0.00911092 0.00874625 -6.24183e-05 0.0089397 1.58032e-07 271.648 
-0.79 -0.39 -3.31137 1.97513 0.00917391 0.00876337 -2.51248e-05 0.00898168 1.58196e-07 272.642 
-0.87 -0.37 -2.3143 1.97605 0.0091709 0.00874242 -5.90879e-05 0.00895771 1.57605e-07 272.934 
-0.95 -0.35 -0.377213 1.78381 0.00912042 0.00873606 -6.40237e-05 0.00893108 1.57755e-07 271.864 
-0.77 -0.39 -3.81022 1.61043 0.00917796 0.00878066 -2.64367e-05 0.00899737 1.58826e-07 272.035 
-0.85 -0.37 -2.84148 1.89483 0.00916078 0.00875406 -5.23029e-05 0.00895621 1.58198e-07 271.865 
-0.93 -0.35 -1.01555 2.62894 0.0091287 0.00873358 -6.64924e-05 0.00894579 1.57726e-07 272.361 
-0.83 -0.37 -2.98442 1.84047 0.00915364 0.00871893 -4.63906e-05 0.00895206 1.58063e-07 271.97 
-0.91 -0.35 -1.2586 2.15402 0.00912428 0.00874477 -5.63184e-05 0.00893323 1.57531e-07 272.316 
-0.81 -0.37 -3.44194 1.80991 0.00914954 0.00872583 -3.24646e-05 0.00895565 1.57904e-07 272.354 
-0.89 -0.35 -1.68837 2.34444 0.00912942 0.0087235 -6.45392e-05 0.00893672 1.57472e-07 272.524 
-0.79 -0.37 -3.93624 2.32529 0.00915717 0.00876708 -3.6772e-05 0.00898067 1.58363e-07 272.323 
-0.87 -0.35 -2.29356 2.31921 0.00913318 0.00873619 -5.36618e-05 0.00895085 1.57814e-07 272.364 
-0.77 -0.37 -3.96778 2.3322 0.00915728 0.00876832 -2.26031e-05 0.00897482 1.58485e-07 271.937 
-0.85 -0.35 -2.5362 2.54594 0.00915777 0.00874037 -5.44841e-05 0.00895974 1.58147e-07 272.06 
-0.83 -0.35 -3.42151 2.33185 0.0091738 0.00872072 -4.88292e-05 0.00895664 1.5829e-07 271.721 
-0.81 -0.35 -4.02093 2.30481 0.00918499 0.00872084 -5.81662e-05 0.00896905 1.58302e-07 272.076 
-0.79 -0.35 -4.02522 2.42896 0.00921708 0.00875278 -3.7809e-05 0.00898833 1.58574e-07 272.194 
-0.77 -0.35 -4.13241 2.53105 0.00922168 0.00876875 -2.99034e-05 0.00900175 1.58596e-07 272.562 
-0.75 -0.35 -4.24268 2.46772 0.00922048 0.00877962 -2.6426e-05 0.00901784 1.59165e-07 272.073 
-0.75 -0.49 -2.85462 -0.134592 0.00906911 0.00879921 4.91162e-06 0.00893713 1.57582e-07 272.347 
-0.75 -0.43 -4.1719 0.655938 0.00916466 0.00881315 5.25259e-07 0.00900228 1.58768e-07 272.283 
-0.75 -0.39 -4.84331 1.7231 0.00917162 0.00877485 -1.48317e-05 0.00899261 1.58438e-07 272.557 
-0.75 -0.37 -4.07682 2.20041 0.00915703 0.00876801 -2.53496e-05 0.0089717 1.58285e-07 272.185 
-0.77 -0.33 -4.36368 2.56787 0.00916164 0.0087369 -4.27497e-05 0.00894589 1.58057e-07 271.794 
-0.73 -0.49 -2.80375 0.240903 0.00907825 0.00882071 2.18192e-05 0.00896218 1.57853e-07 272.641 
-0.73 -0.47 -3.43092 0.204746 0.00910079 0.00880356 1.23537e-05 0.00896722 1.58119e-07 272.336 
-0.73 -0.45 -3.83509 0.344941 0.00913399 0.00880737 6.34666e-06 0.0089759 1.5859e-07 271.789 
-0.73 -0.43 -4.88324 0.892868 0.0091693 0.00881793 5.03368e-06 0.00900093 1.58777e-07 272.226 
-0.73 -0.41 -4.78969 1.18442 0.00918719 0.00882244 5.53036e-06 0.00901703 1.58913e-07 272.48 
-0.73 -0.39 -4.70821 1.46922 0.00917394 0.0088001 -8.14581e-06 0.00900147 1.58578e-07 272.585 
-0.73 -0.37 -4.67079 1.63613 0.00917519 0.00880066 -3.45805e-05 0.00899447 1.58738e-07 272.097 
-0.73 -0.35 -4.31085 2.09425 0.00920824 0.00880327 -2.71906e-05 0.0090173 1.58953e-07 272.42 
-0.81 -0.29 -3.25059 3.71572 0.00915957 0.00870163 -7.49615e-05 0.00893277 1.57697e-07 272.016 
-0.89 -0.27 -1.98507 3.80525 0.00910894 0.00868916 -9.00474e-05 0.00890988 1.57412e-07 271.809 
-0.97 -0.25 -0.410089 3.94571 0.00908931 0.0087229 -0.000109385 0.0089111 1.57428e-07 271.818 
-0.83 -0.29 -3.04694 3.63252 0.00913374 0.00872384 -8.17641e-05 0.00893781 1.57342e-07 272.783 
-0.91 -0.27 -1.23703 4.11458 0.00911919 0.00871479 -9.20228e-05 0.00892923 1.57892e-07 271.571 
-0.99 -0.25 -0.0989865 4.01965 0.00906867 0.0087275 -0.000107477 0.00891882 1.57481e-07 271.962 
-0.79 -0.29 -3.65045 3.44926 0.00918589 0.00873605 -6.29387e-05 0.00895969 1.58402e-07 271.62 
-0.87 -0.27 -2.29188 3.79795 0.00913166 0.00874428 -7.81588e-05 0.00894708 1.57878e-07 272.138 
-0.95 -0.25 -0.285997 4.13844 0.00910797 0.00874691 -0.00011901 0.00893612 1.5787e-07 271.818 
-0.77 -0.29 -4.06918 3.2876 0.00919449 0.00874252 -4.73391e-05 0.00897319 1.58662e-07 271.584 
-0.85 -0.27 -2.47977 3.7978 0.00914778 0.00872646 -7.33086e-05 0.00894045 1.57586e-07 272.441 
-0.93 -0.25 -0.660446 4.16646 0.00909986 0.00869129 -0.000112283 0.00890059 1.57297e-07 271.724 
-0.75 -0.29 -4.74559 2.99317 0.00918592 0.0087668 -5.68447e-05 0.00899146 1.58667e-07 272.129 
-0.83 -0.27 -2.97618 3.78041 0.00916758 0.00873731 -7.20741e-05 0.00896329 1.58246e-07 271.998 
-0.91 -0.25 -1.29502 4.24988 0.00911741 0.00871213 -9.34505e-05 0.00892485 1.57672e-07 271.817 
-0.99 -0.23 -0.037077 4.27208 0.00907235 0.0087332 -0.000132606 0.00892985 1.57516e-07 272.239 
-0.81 -0.27 -3.444 4.01874 0.00915172 0.00870402 -9.08725e-05 0.00892997 1.5761e-07 272.08 
-0.89 -0.25 -1.54233 4.27792 0.0091163 0.00868877 -9.372e-05 0.00891142 1.57417e-07 271.848 
-0.97 -0.23 -0.256481 4.17652 0.00909991 0.00873823 -0.000134959 0.00893525 1.57803e-07 271.908 
-0.79 -0.27 -3.78454 3.75674 0.00916118 0.00871502 -7.81059e-05 0.00892932 1.57975e-07 271.431 
-0.87 -0.25 -2.13812 4.43877 0.00914796 0.0087273 -9.12676e-05 0.00894624 1.58027e-07 271.857 
-0.95 -0.23 -0.763395 4.2322 0.00911105 0.00871641 -0.000129703 0.00892299 1.57445e-07 272.153 
-0.77 -0.27 -4.09196 3.80678 0.00917887 0.00873999 -5.73223e-05 0.00895739 1.5832e-07 271.691 
-0.85 -0.25 -2.61906 4.22215 0.00916266 0.00873712 -0.0001013 0.00895781 1.57925e-07 272.384 
-0.93 -0.23 -1.00678 4.57051 0.00911545 0.00869782 -0.000111221 0.00891319 1.57488e-07 271.78 
-0.83 -0.25 -3.05545 4.29325 0.009172 0.00871481 -8.72186e-05 0.00894467 1.5813e-07 271.631 
-0.91 -0.23 -1.20134 4.76946 0.00911371 0.00868618 -0.000104981 0.00891024 1.5726e-07 272.083 
-0.99 -0.21 0.100764 4.01238 0.00914359 0.0087499 -0.000137992 0.00897001 1.58425e-07 271.894 
-0.81 -0.25 -3.35498 4.22989 0.00917746 0.00872101 -7.70332e-05 0.00895627 1.5818e-07 271.898 
-0.89 -0.23 -1.93199 4.96249 0.00914362 0.00869758 -0.00010511 0.00893399 1.5769e-07 272.064 
-0.97 -0.21 0.22424 4.47465 0.00913089 0.00871249 -0.000135395 0.00893779 1.57949e-07 271.735 
-0.79 -0.25 -3.84571 4.36971 0.00917235 0.0086953 -8.50366e-05 0.00894077 1.58206e-07 271.383 
-0.87 -0.23 -2.2438 4.60111 0.00915847 0.00873195 -0.000119517 0.00894754 1.57979e-07 271.979 
-0.95 -0.21 -0.321297 4.81104 0.00911186 0.00870986 -0.000124645 0.00892582 1.57363e-07 272.38 
-0.77 -0.25 -4.51015 3.88837 0.0091846 0.008725 -8.11088e-05 0.00895019 1.5816e-07 271.747 
-0.85 -0.23 -2.63962 4.91327 0.00914699 0.00873489 -9.63001e-05 0.00894272 1.57778e-07 272.179 
-0.93 -0.21 -1.04663 5.03815 0.00911616 0.00868401 -0.000112611 0.00890653 1.57202e-07 272.07 
-0.83 -0.23 -3.01872 4.39367 0.00913267 0.00870299 -8.85957e-05 0.0089222 1.5758e-07 271.895 
-0.91 -0.21 -1.3422 5.0469 0.00914129 0.0086991 -0.000127489 0.00893142 1.5769e-07 271.986 
-0.99 -0.19 -0.0946483 4.24747 0.00907502 0.00873354 -0.000148121 0.00892248 1.57622e-07 271.831 
-0.81 -0.23 -3.41265 4.40008 0.00915708 0.00872004 -9.60222e-05 0.00895348 1.58001e-07 272.12 
-0.89 -0.21 -1.65944 5.4359 0.00915472 0.0087067 -0.000124698 0.00895232 1.57854e-07 272.34 
-0.97 -0.19 -0.727367 4.73189 0.00910038 0.00870468 -0.000143819 0.0089043 1.5755e-07 271.402 
-0.79 -0.23 -3.52343 4.8919 0.0091755 0.00869958 -9.02302e-05 0.00894202 1.57964e-07 271.836 
-0.87 -0.21 -2.03225 5.10384 0.00914828 0.00869984 -0.000114782 0.00893727 1.57942e-07 271.73 
-0.95 -0.19 -0.776349 5.43658 0.00911093 0.00870742 -0.000114568 0.00890925 1.57486e-07 271.663 
-0.77 -0.23 -3.9321 4.53289 0.00917733 0.00872418 -9.13994e-05 0.00895574 1.58208e-07 271.833 
-0.85 -0.21 -2.93584 5.32434 0.0091588 0.00872311 -8.92318e-05 0.00895019 1.57816e-07 272.34 
-0.93 -0.19 -0.816595 5.28432 0.00912616 0.00869229 -0.00012976 0.00892575 1.57799e-07 271.626 
-0.75 -0.23 -4.53137 4.06733 0.00918074 0.00875167 -8.07477e-05 0.00897897 1.587e-07 271.694 
-0.83 -0.21 -3.44541 4.89011 0.00917073 0.00872392 -9.64226e-05 0.00895685 1.57961e-07 272.293 
-0.91 -0.19 -1.21211 5.6645 0.00912664 0.00869401 -0.000129493 0.00891521 1.57565e-07 271.708 
-0.81 -0.21 -3.87374 4.78148 0.00915012 0.00870538 -9.67005e-05 0.0089491 1.58094e-07 271.827 
-0.89 -0.19 -1.68733 5.41773 0.00913398 0.00870095 -0.000125034 0.00893567 1.57685e-07 272.125 
-0.79 -0.21 -4.2288 5.1227 0.00914493 0.00870059 -0.00010063 0.00893692 1.57875e-07 271.835 
-0.87 -0.19 -2.23787 5.71439 0.00913637 0.0086965 -0.00011053 0.00893409 1.57789e-07 271.896 
-0.77 -0.21 -4.3144 4.92704 0.00916057 0.00872112 -9.38366e-05 0.00894874 1.58091e-07 271.823 
-0.85 -0.19 -2.43399 5.86189 0.00913173 0.0086948 -0.000107297 0.00892141 1.57945e-07 271.242 
-0.75 -0.21 -4.64868 4.44589 0.00917392 0.00874248 -9.98694e-05 0.0089751 1.58534e-07 271.861 
-0.83 -0.19 -2.7972 5.45254 0.00912375 0.00872807 -8.84053e-05 0.00893695 1.57695e-07 272.147 
-0.81 -0.19 -3.40112 5.08866 0.00913682 0.0087075 -0.000105681 0.00892791 1.57794e-07 271.7 
-0.79 -0.19 -3.74173 5.30624 0.00915023 0.00871012 -9.71226e-05 0.00894016 1.58247e-07 271.294 
-0.77 -0.19 -3.98462 5.30687 0.00914772 0.00872405 -0.000113309 0.00895422 1.58627e-07 271.07 
-0.99 -0.33 -0.0565841 2.69153 0.00909889 0.00877448 -8.42948e-05 0.00895566 1.58105e-07 272.009 
-0.97 -0.33 -0.292744 2.75424 0.00912199 0.00873991 -8.70258e-05 0.00894665 1.57977e-07 271.955 
-0.91 -0.33 -1.41604 2.7589 0.00915569 0.0087431 -6.85432e-05 0.0089436 1.57851e-07 272.079 
-0.99 -0.31 -0.236006 3.19783 0.00910493 0.00877224 -7.99651e-05 0.00895031 1.5811e-07 271.837 
-0.97 -0.31 -0.448771 2.72223 0.00909631 0.00873159 -7.59168e-05 0.00892658 1.57664e-07 271.884 
-0.87 -0.33 -2.3891 2.7938 0.00915756 0.00874109 -7.39253e-05 0.00895996 1.58237e-07 271.912 
-0.95 -0.31 -1.1437 2.96173 0.00909769 0.00871966 -8.35188e-05 0.00892374 1.57638e-07 271.842 
-0.85 -0.33 -2.5564 2.82252 0.00915622 0.00873127 -6.45012e-05 0.00895936 1.58086e-07 272.154 
-0.93 -0.31 -1.44333 3.18195 0.00912373 0.00873562 -8.73195e-05 0.00893512 1.57586e-07 272.279 
-0.91 -0.31 -1.8372 3.05024 0.00915897 0.00873328 -6.78449e-05 0.00894674 1.57738e-07 272.369 
-0.99 -0.29 -0.105757 3.38582 0.00905519 0.00874888 -0.000107955 0.00892627 1.57657e-07 271.887 
-0.81 -0.33 -3.48466 2.85302 0.00915666 0.00871832 -5.69836e-05 0.00895309 1.57796e-07 272.462 
-0.89 -0.31 -2.0539 3.19416 0.00916932 0.00872919 -6.45045e-05 0.0089608 1.58218e-07 271.971 
-0.97 -0.29 -0.520916 3.44198 0.00908969 0.00872836 -9.03176e-05 0.00892 1.57791e-07 271.464 
-0.87 -0.31 -2.22828 3.22986 0.00916091 0.00873199 -6.89682e-05 0.00895946 1.58105e-07 272.123 
-0.95 -0.29 -0.834109 3.44667 0.00911579 0.00872022 -9.37819e-05 0.00893049 1.57628e-07 272.065 
-0.85 -0.31 -2.60631 2.93035 0.00915754 0.00872068 -6.25732e-05 0.00895024 1.57923e-07 272.158 
-0.93 -0.29 -1.38201 3.25553 0.00912057 0.00874257 -0.000102229 0.00894332 1.57788e-07 272.18 
-0.83 -0.31 -2.97184 3.40014 0.00916581 0.00872909 -6.09182e-05 0.00896057 1.5774e-07 272.787 
-0.91 -0.29 -1.67385 3.61101 0.00909994 0.00869805 -9.12586e-05 0.00891556 1.57473e-07 271.877 
-0.99 -0.27 -0.082298 3.77055 0.00909795 0.0087432 -0.000109539 0.00894012 1.57747e-07 272.152 
-0.81 -0.31 -3.30034 3.2258 0.0091635 0.00870875 -5.20946e-05 0.00894847 1.57671e-07 272.538 
-0.89 -0.29 -1.86623 3.35773 0.00912765 0.00872156 -7.55103e-05 0.00892743 1.57881e-07 271.536 
-0.97 -0.27 -0.368329 3.79801 0.00907769 0.0087172 -0.000111341 0.00891563 1.57378e-07 272.043 
-0.79 -0.31 -3.78493 3.11793 0.00915657 0.0087476 -5.20521e-05 0.00895964 1.58267e-07 271.852 
-0.87 -0.29 -2.37362 3.60084 0.00912698 0.00873607 -5.16536e-05 0.00893282 1.57931e-07 271.614 
-0.95 -0.27 -0.851755 3.81194 0.00908741 0.00872773 -0.000107269 0.00891221 1.57597e-07 271.56 
-0.77 -0.31 -4.04822 2.83609 0.00915669 0.00873433 -5.53467e-05 0.00894742 1.58379e-07 271.288 
-0.85 -0.29 -2.77199 3.47178 0.00913532 0.00871648 -6.34647e-05 0.0089403 1.57966e-07 271.78 
-0.93 -0.27 -1.08158 3.55105 0.00910636 0.00871709 -9.84935e-05 0.00892286 1.57335e-07 272.338 
-0.95 -0.33 -0.667015 2.27769 0.00913425 0.00872596 -6.16976e-05 0.00893862 1.57876e-07 271.884 
-0.93 -0.33 -1.15107 3.00836 0.00914317 0.00873755 -5.76931e-05 0.00894802 1.57682e-07 272.505 
-0.89 -0.33 -2.08371 2.74276 0.00915057 0.00872049 -5.72651e-05 0.00893836 1.576e-07 272.353 
-0.83 -0.33 -2.95076 2.94512 0.00914893 0.00872223 -5.73849e-05 0.00895522 1.58082e-07 272.034 
-0.75 -0.31 -4.43975 2.60165 0.00917796 0.00877182 -4.24368e-05 0.00898716 1.5869e-07 271.958 
-0.75 -0.27 -4.2028 3.76403 0.00919776 0.00876995 -6.50996e-05 0.00897593 1.58535e-07 271.885 
-0.75 -0.25 -4.61312 3.85569 0.00919586 0.00877543 -6.25119e-05 0.00898263 1.58781e-07 271.666 
-0.75 -0.19 -4.41914 4.7672 0.00914493 0.00872649 -9.88543e-05 0.00895542 1.58618e-07 271.121 
-0.79 -0.33 -4.04176 2.61417 0.00914792 0.00874837 -4.76277e-05 0.00895167 1.5797e-07 272.12 
-0.75 -0.33 -4.45309 2.38094 0.00917547 0.00878357 -2.80591e-05 0.00899345 1.58835e-07 271.901 
-0.81 -0.17 -3.503 5.9412 0.00913782 0.00871337 -9.55676e-05 0.00892376 1.57904e-07 271.384 
-0.79 -0.17 -4.14098 5.5335 0.00913231 0.00872569 -0.000108893 0.00894214 1.58094e-07 271.616 
-0.75 -0.17 -4.2481 5.37739 0.00916089 0.00871306 -0.000117239 0.00894968 1.58399e-07 271.322 
-0.73 -0.31 -5.05326 2.67712 0.0091844 0.0087966 -4.73132e-05 0.00899867 1.58609e-07 272.447 
-0.73 -0.29 -4.78366 2.86519 0.00919375 0.00879415 -4.89719e-05 0.00900581 1.59254e-07 271.558 
-0.73 -0.27 -4.94871 2.86588 0.00920751 0.00878396 -6.49311e-05 0.00901029 1.58987e-07 272.15 
-0.73 -0.25 -4.46963 3.45381 0.00919788 0.00877639 -6.92801e-05 0.00900353 1.59219e-07 271.549 
-0.73 -0.23 -4.92797 3.86766 0.00918518 0.00877922 -6.32828e-05 0.00898745 1.58734e-07 271.892 
-0.73 -0.21 -5.06097 4.01588 0.00919715 0.00876494 -7.81328e-05 0.00898112 1.58489e-07 272.121 
-0.73 -0.19 -4.70718 4.67114 0.00914739 0.00875957 -9.64383e-05 0.0089642 1.58535e-07 271.53 
-0.79 -0.05 -3.10455 7.51933 0.0090523 0.00870092 -0.000156396 0.00887842 1.57325e-07 270.999 
-0.87 -0.03 -2.23911 8.82972 0.00898956 0.00861516 -0.000191252 0.00881856 1.55963e-07 271.523 
-0.83 -0.05 -2.50001 8.19647 0.00901542 0.00867842 -0.000151333 0.00887475 1.56843e-07 271.719 
-0.91 -0.03 -1.68728 8.20836 0.00899271 0.00863799 -0.000187856 0.00882895 1.56054e-07 271.684 
-0.81 -0.05 -2.5754 7.8622 0.00903895 0.00868354 -0.000132698 0.00888031 1.57403e-07 270.923 
-0.89 -0.03 -1.75165 8.46792 0.00898513 0.00864927 -0.000171391 0.00883371 1.5618e-07 271.612 
-0.77 -0.05 -3.54039 6.82898 0.00906871 0.00875709 -0.000157597 0.00892618 1.57835e-07 271.577 
-0.85 -0.03 -2.24625 7.86829 0.00898984 0.00863945 -0.000173609 0.00883675 1.56511e-07 271.13 
-0.75 -0.05 -3.7626 6.89124 0.00907064 0.0087639 -0.000168706 0.00892608 1.5781e-07 271.618 
-0.83 -0.03 -2.29388 8.3282 0.00901228 0.00867118 -0.00016834 0.00885728 1.5691e-07 271.069 
-0.81 -0.03 -2.84587 8.04338 0.00901173 0.00867619 -0.000156559 0.00886514 1.57118e-07 270.951 
-0.79 -0.03 -2.93001 8.39291 0.00904254 0.00871549 -0.000158955 0.00888947 1.57371e-07 271.258 
-0.77 -0.03 -3.44298 7.10977 0.00903748 0.0087557 -0.000163506 0.00890795 1.57515e-07 271.573 
-0.95 -0.17 -0.83291 5.55921 0.00907116 0.00869541 -0.000151792 0.00889052 1.57322e-07 271.374 
-0.99 -0.15 -0.211792 4.58293 0.00905105 0.00871644 -0.000163414 0.00889962 1.57342e-07 271.616 
-0.89 -0.17 -1.53531 5.85422 0.00911578 0.00868612 -0.000122397 0.0089122 1.57135e-07 272.359 
-0.97 -0.15 -0.578091 5.69985 0.00907193 0.008701 -0.000164175 0.00890315 1.5732e-07 271.764 
-0.95 -0.15 -1.01371 5.89311 0.00907158 0.00869119 -0.000165219 0.00890481 1.57533e-07 271.447 
-0.93 -0.15 -1.18444 5.59789 0.00906994 0.00867205 -0.000156759 0.00890034 1.57277e-07 271.752 
-0.83 -0.17 -2.77125 6.01103 0.00913496 0.00872766 -9.7356e-05 0.00894103 1.58071e-07 271.622 
-0.91 -0.15 -1.4025 6.3798 0.00908824 0.00869331 -0.000153198 0.00890362 1.57263e-07 271.876 
-0.99 -0.13 -0.423382 5.02279 0.00905238 0.00871418 -0.000186922 0.00889345 1.57488e-07 271.176 
-0.89 -0.15 -1.59516 6.31433 0.00909064 0.00866165 -0.000124309 0.00889636 1.57242e-07 271.69 
-0.97 -0.13 -0.456093 6.00803 0.00906799 0.00868904 -0.000164254 0.00889064 1.57227e-07 271.541 
-0.87 -0.15 -2.09684 6.35434 0.00909827 0.00868647 -0.00011213 0.00891606 1.57368e-07 272.074 
-0.95 -0.13 -0.631674 6.3884 0.00908748 0.00867936 -0.000171144 0.00890591 1.57484e-07 271.563 
-0.77 -0.17 -4.09369 5.32278 0.00914981 0.00872364 -0.000111116 0.00894637 1.58347e-07 271.311 
-0.85 -0.15 -2.63657 6.53709 0.00911031 0.00868293 -0.000110498 0.00891297 1.57612e-07 271.558 
-0.93 -0.13 -1.17396 5.82155 0.00909054 0.00867716 -0.000155482 0.00890489 1.57263e-07 271.915 
-0.83 -0.15 -3.24753 6.24382 0.00912323 0.00872094 -0.000119272 0.00893903 1.58047e-07 271.602 
-0.91 -0.13 -1.68884 6.6852 0.00908451 0.00868259 -0.000154026 0.00890643 1.5734e-07 271.828 
-0.99 -0.11 -0.0487719 5.38313 0.00904895 0.00869097 -0.000184395 0.00888592 1.57097e-07 271.622 
-0.81 -0.15 -3.40507 6.45044 0.0091415 0.00872432 -0.000106959 0.00894681 1.58006e-07 271.91 
-0.89 -0.13 -2.28855 6.33516 0.00909216 0.00864016 -0.000139433 0.00888693 1.57416e-07 271.102 
-0.97 -0.11 -0.633941 6.40826 0.0090494 0.00869532 -0.000192005 0.00889271 1.57328e-07 271.43 
-0.79 -0.15 -3.76872 5.77202 0.00915499 0.00873939 -0.000121826 0.00895293 1.58378e-07 271.456 
-0.87 -0.13 -2.52004 6.82573 0.00910642 0.00867061 -0.000124102 0.0089147 1.57721e-07 271.424 
-0.95 -0.11 -0.7155 6.45524 0.00905409 0.00865927 -0.000178934 0.00887803 1.57152e-07 271.286 
-0.77 -0.15 -4.06115 5.4382 0.00916346 0.00871322 -0.000120079 0.0089481 1.58476e-07 271.143 
-0.85 -0.13 -2.74673 6.94465 0.00912974 0.00869514 -0.000130752 0.00892628 1.57881e-07 271.502 
-0.93 -0.11 -0.942551 6.60399 0.00908212 0.00867124 -0.000166267 0.00890737 1.57542e-07 271.509 
-0.75 -0.15 -4.30179 5.73587 0.00914416 0.00871802 -0.000112507 0.00894466 1.58392e-07 271.182 
-0.83 -0.13 -2.85292 6.68446 0.00914498 0.00871034 -0.000123213 0.00894865 1.57883e-07 272.177 
-0.91 -0.11 -1.59069 6.96912 0.0090871 0.00867483 -0.000160063 0.00889418 1.57193e-07 271.708 
-0.99 -0.09 0.0632084 5.74306 0.00899233 0.00867595 -0.000220924 0.00885529 1.56465e-07 271.779 
-0.81 -0.13 -3.38618 6.74953 0.00912734 0.00872134 -0.00011019 0.00893878 1.58087e-07 271.526 
-0.89 -0.11 -1.95212 7.1083 0.00908264 0.00863533 -0.00014322 0.00887068 1.57141e-07 271.08 
-0.97 -0.09 -0.434283 7.0078 0.00903284 0.00868487 -0.000198885 0.00888741 1.57316e-07 271.289 
-0.79 -0.13 -3.37127 6.03692 0.00912834 0.00874961 -0.000122287 0.00894359 1.57996e-07 271.829 
-0.87 -0.11 -2.63804 7.19374 0.00909135 0.0086617 -0.000146605 0.00889878 1.5765e-07 271.062 
-0.95 -0.09 -0.837242 6.45001 0.00905473 0.00866784 -0.000185861 0.00889144 1.57277e-07 271.479 
-0.77 -0.13 -3.90825 5.82136 0.00910998 0.00869215 -0.000118383 0.00890969 1.57703e-07 271.302 
-0.85 -0.11 -2.79443 7.00571 0.00911015 0.00869568 -0.000138376 0.00891109 1.5763e-07 271.47 
-0.93 -0.09 -1.0464 6.96553 0.00903545 0.00865001 -0.00018749 0.00886747 1.56919e-07 271.366 
-0.83 -0.11 -3.05751 7.32301 0.00910287 0.00869047 -0.000129115 0.00891218 1.57464e-07 271.789 
-0.91 -0.09 -1.28191 7.30912 0.00903139 0.00864393 -0.000148562 0.00886316 1.56616e-07 271.759 
-0.99 -0.07 -0.738571 6.38537 0.00901477 0.00867161 -0.00021558 0.00885478 1.56573e-07 271.576 
-0.81 -0.11 -3.30386 6.37616 0.00913304 0.00871563 -0.000125609 0.00893365 1.57655e-07 272.115 
-0.89 -0.09 -1.90503 7.64062 0.00904239 0.0086496 -0.000163077 0.00886535 1.56939e-07 271.267 
-0.97 -0.07 -0.893008 6.99627 0.00899248 0.00865772 -0.00021393 0.00884425 1.565e-07 271.38 
-0.79 -0.11 -3.39499 6.49601 0.00913848 0.0087357 -0.000108243 0.00894778 1.58434e-07 271.205 
-0.87 -0.09 -2.22158 7.71523 0.00907265 0.00865677 -0.000166637 0.00888168 1.57264e-07 271.204 
-0.95 -0.07 -0.875114 6.86642 0.00899516 0.00866278 -0.00018871 0.00884903 1.56384e-07 271.727 
-0.77 -0.11 -4.00204 6.41665 0.00913828 0.00871048 -0.000116619 0.00894524 1.5811e-07 271.683 
-0.85 -0.09 -2.50473 7.22097 0.00906482 0.0086702 -0.000147345 0.00887827 1.57081e-07 271.416 
-0.93 -0.07 -1.5102 7.3419 0.00900307 0.00863947 -0.000178886 0.00884912 1.56445e-07 271.624 
-0.75 -0.11 -4.33576 5.90328 0.00914019 0.00875056 -0.000129953 0.0089645 1.58538e-07 271.533 
-0.83 -0.09 -2.97612 7.20535 0.00908359 0.00869903 -0.000139164 0.0089105 1.57497e-07 271.682 
-0.91 -0.07 -1.81416 7.51347 0.00901666 0.00862452 -0.00017479 0.00885048 1.56458e-07 271.643 
-0.99 -0.05 0.2138 6.86768 0.00896817 0.00865714 -0.000219717 0.00882453 1.5624e-07 271.225 
-0.81 -0.09 -3.12633 7.07493 0.00908503 0.00870841 -0.000146079 0.00890844 1.57663e-07 271.333 
-0.89 -0.07 -1.84369 7.9826 0.00903279 0.00867229 -0.000176481 0.00887226 1.56963e-07 271.437 
-0.97 -0.05 -0.348727 7.06891 0.00897691 0.0086586 -0.000205139 0.00883673 1.56424e-07 271.28 
-0.79 -0.09 -3.76036 6.68847 0.00909471 0.00872568 -0.000117099 0.00891467 1.57829e-07 271.237 
-0.87 -0.07 -2.09176 7.98279 0.00901702 0.00862237 -0.000158401 0.00884814 1.56778e-07 271.017 
-0.95 -0.05 -0.568841 7.34482 0.00897102 0.00863781 -0.000205898 0.00883403 1.5628e-07 271.447 
-0.77 -0.09 -3.83559 6.6851 0.00910182 0.00872692 -0.000112886 0.00893553 1.581e-07 271.405 
-0.85 -0.07 -2.49947 7.80529 0.00903361 0.00867095 -0.000149923 0.0088677 1.5676e-07 271.648 
-0.93 -0.05 -1.13558 7.84338 0.00897815 0.0086218 -0.000175785 0.00882544 1.56373e-07 271.023 
-0.75 -0.09 -4.16414 6.39162 0.00909107 0.00875228 -0.000134005 0.00894046 1.57967e-07 271.785 
-0.83 -0.07 -2.97151 7.75118 0.00904018 0.00868784 -0.000147722 0.00888177 1.56922e-07 271.797 
-0.91 -0.05 -1.50878 7.91642 0.00898579 0.00863558 -0.000180188 0.00884189 1.56446e-07 271.4 
-0.99 -0.03 -0.107364 6.93255 0.00896018 0.00866618 -0.000223713 0.00882192 1.5616e-07 271.283 
-0.81 -0.07 -3.7232 7.55821 0.00903033 0.00869968 -0.000148887 0.00888035 1.57175e-07 271.317 
-0.89 -0.05 -1.81309 8.18397 0.0089928 0.00865906 -0.000183754 0.00885028 1.56805e-07 271.036 
-0.97 -0.03 -0.180331 7.47627 0.0089577 0.00863424 -0.000216373 0.00881844 1.56224e-07 271.066 