ITEM: TIMESTEP
815500
ITEM: NUMBER OF CELLS
5000
ITEM: BOX BOUNDS ss ss pp
-1 1
-0.5 0.5
-0.5 0.5
ITEM: CELLS xc yc f_U[*] f_V[*] f_Tau[1] f_Tau[2] f_Tau[3] f_Press[*] f_Mrho[*] f_Ttra[*] 
-0.99 -0.49 0.0787805 0.0661022 0.00895747 0.00874553 -2.61592e-06 0.00886889 1.56827e-07 271.568 
-0.97 -0.49 0.102755 -0.0704271 0.00893653 0.00877789 -2.09902e-05 0.00886443 1.56217e-07 272.492 
-0.95 -0.49 -0.350849 -0.0658221 0.00897548 0.00874976 -3.91081e-05 0.00888985 1.57093e-07 271.749 
-0.93 -0.49 -0.565802 0.556045 0.00897755 0.00874453 -3.50322e-05 0.00888543 1.57011e-07 271.756 
-0.91 -0.49 -0.965519 -0.132132 0.00897414 0.00870003 -3.24859e-05 0.00886032 1.56845e-07 271.274 
-0.99 -0.47 -0.00305144 -0.305524 0.00899691 0.00875983 -1.4041e-05 0.00889045 1.57115e-07 271.729 
-0.89 -0.49 -1.34341 0.294754 0.00900874 0.00870821 -4.29728e-05 0.00888149 1.56834e-07 271.941 
-0.97 -0.47 -0.116829 0.777356 0.00901228 0.00879007 -2.46034e-05 0.00891558 1.5699e-07 272.714 
-0.87 -0.49 -1.85498 0.0632412 0.00904081 0.0087965 -7.31393e-06 0.00891911 1.57734e-07 271.536 
-0.95 -0.47 -0.872966 0.805911 0.00901176 0.00877313 -3.25466e-05 0.00891607 1.57593e-07 271.685 
-0.85 -0.49 -1.68548 0.223787 0.00906025 0.00883016 1.47137e-05 0.00894194 1.57767e-07 272.174 
-0.93 -0.47 -1.60954 0.706038 0.00901265 0.00873133 -4.00003e-05 0.00888971 1.56652e-07 272.51 
-0.83 -0.49 -1.70178 0.392474 0.0090768 0.00884291 9.0959e-06 0.00897347 1.58148e-07 272.475 
-0.91 -0.47 -1.65258 0.153157 0.00900184 0.00871056 -3.99643e-05 0.0088841 1.56792e-07 272.095 
-0.99 -0.45 -0.516433 0.434069 0.00901582 0.00876745 -3.02541e-05 0.00891066 1.57113e-07 272.351 
-0.81 -0.49 -2.20626 0.096094 0.00904962 0.00878217 2.18528e-06 0.00891338 1.57371e-07 271.987 
-0.89 -0.47 -2.00229 0.853083 0.00899652 0.00870426 -6.33537e-05 0.00886317 1.56637e-07 271.723 
-0.97 -0.45 -0.810721 0.759662 0.00903884 0.00879402 -3.36608e-05 0.00893636 1.57303e-07 272.805 
-0.79 -0.49 -2.57388 0.153758 0.00908512 0.00876497 1.24497e-05 0.00892898 1.57871e-07 271.6 
-0.87 -0.47 -1.92963 0.422486 0.00902619 0.00874613 -3.95758e-05 0.00891898 1.57583e-07 271.792 
-0.95 -0.45 -0.512018 1.73337 0.00903499 0.00879589 -4.95935e-05 0.00894211 1.57729e-07 272.243 
-0.77 -0.49 -2.35662 -0.277157 0.00908343 0.00878421 4.1657e-05 0.00893919 1.5739e-07 272.742 
-0.85 -0.47 -2.03842 -0.0794755 0.00907457 0.00883295 -3.26977e-05 0.00897956 1.58027e-07 272.869 
-0.93 -0.45 -0.688456 0.88814 0.00901661 0.00867971 -2.54755e-05 0.00889166 1.56972e-07 272.014 
-0.83 -0.47 -2.41409 0.517639 0.00908676 0.00882664 2.04383e-05 0.00896712 1.57893e-07 272.722 
-0.91 -0.45 -1.14273 0.566944 0.00903877 0.00877139 -3.45659e-05 0.00893035 1.57842e-07 271.692 
-0.99 -0.43 -0.643153 1.36844 0.00911094 0.00879018 -3.81077e-05 0.0089667 1.58123e-07 272.313 
-0.81 -0.47 -2.15354 0.296009 0.00909037 0.00881748 1.26898e-05 0.00895921 1.58092e-07 272.139 
-0.89 -0.45 -1.36975 0.850216 0.00903978 0.00868898 -6.28312e-05 0.0088864 1.5674e-07 272.255 
-0.97 -0.43 -0.935864 0.458943 0.00912449 0.00877229 -3.06107e-05 0.00896773 1.58095e-07 272.392 
-0.79 -0.47 -2.4173 0.540589 0.00907435 0.00871313 1.06403e-05 0.00890505 1.57375e-07 271.725 
-0.87 -0.45 -1.63214 0.794524 0.00905138 0.0087559 -4.89543e-05 0.00890977 1.57603e-07 271.476 
-0.95 -0.43 -0.831123 1.76996 0.00913367 0.00880314 -2.43833e-05 0.00897772 1.58412e-07 272.15 
-0.77 -0.47 -2.72709 0.112111 0.00908405 0.00879156 2.60677e-05 0.00893519 1.57661e-07 272.152 
-0.85 -0.45 -2.58722 -0.0344473 0.00904364 0.00878248 -4.97394e-05 0.00894079 1.57959e-07 271.807 
-0.93 -0.43 -0.69023 1.09615 0.00912985 0.00869792 -3.74895e-05 0.00892755 1.57445e-07 272.291 
-0.75 -0.47 -2.66647 0.035983 0.00909221 0.00878614 3.55613e-05 0.00895782 1.57783e-07 272.63 
-0.83 -0.45 -2.67866 0.662451 0.0090601 0.00879346 -3.05526e-05 0.008939 1.57758e-07 272.099 
-0.91 -0.43 -1.06779 1.18063 0.00912632 0.00876243 -4.65291e-05 0.00893644 1.57495e-07 272.476 
-0.99 -0.41 -0.141575 1.83301 0.00911334 0.008798 -4.9105e-05 0.00897788 1.58411e-07 272.156 
-0.81 -0.45 -2.60662 0.376432 0.00909959 0.00879942 -3.89946e-06 0.00895735 1.5772e-07 272.724 
-0.89 -0.43 -1.4963 0.746783 0.00911911 0.00870512 -3.24984e-05 0.0089092 1.57364e-07 271.872 
-0.97 -0.41 -0.366259 1.16926 0.00912117 0.00878031 -6.01902e-05 0.00895289 1.58273e-07 271.636 
-0.79 -0.45 -2.88814 0.84238 0.00911307 0.00872767 2.77702e-05 0.00891927 1.58115e-07 270.885 
-0.87 -0.43 -1.66508 1.02816 0.00911275 0.00875755 -6.3962e-05 0.00894518 1.57747e-07 272.307 
-0.95 -0.41 -0.959068 1.36021 0.00913224 0.00877184 -1.50478e-05 0.00894126 1.58173e-07 271.455 
-0.77 -0.45 -3.41007 0.385526 0.0091281 0.00876433 2.60337e-05 0.00893724 1.57792e-07 271.988 
-0.85 -0.43 -1.87036 0.716155 0.00910498 0.00878136 -3.05955e-05 0.00895566 1.57885e-07 272.388 
-0.93 -0.41 -1.32016 1.5349 0.00912355 0.00872045 -2.26513e-05 0.00893937 1.57873e-07 271.912 
-0.75 -0.45 -3.78433 0.357754 0.00911396 0.00880372 1.64906e-05 0.00895663 1.58259e-07 271.773 
-0.83 -0.43 -2.82961 1.04428 0.00907694 0.00878442 -4.25852e-05 0.00895404 1.57735e-07 272.597 
-0.91 -0.41 -0.904741 1.41153 0.00912759 0.0087698 -3.50783e-05 0.00895501 1.57838e-07 272.449 
-0.99 -0.39 -0.0664194 2.09782 0.00910718 0.00879614 -5.05466e-05 0.00896605 1.58065e-07 272.394 
-0.81 -0.43 -3.29895 0.350371 0.00907802 0.00875704 -3.60868e-06 0.00896081 1.58026e-07 272.3 
-0.89 -0.41 -1.31724 1.20198 0.00911852 0.00872631 -4.34865e-05 0.00894493 1.57618e-07 272.522 
-0.97 -0.39 -0.977189 1.80413 0.00911442 0.00878069 -2.20577e-05 0.00895544 1.57834e-07 272.469 
-0.79 -0.43 -3.17352 0.845528 0.00909752 0.00874074 2.48122e-06 0.00894896 1.57894e-07 272.169 
-0.87 -0.41 -2.13394 1.0425 0.00909918 0.00874618 -2.49289e-05 0.00894072 1.57484e-07 272.625 
-0.95 -0.39 -1.00546 1.43639 0.00910193 0.0087336 -2.90018e-05 0.00892182 1.57538e-07 271.956 
-0.77 -0.43 -3.21336 0.795727 0.00912074 0.00873722 7.96954e-06 0.00894746 1.57489e-07 272.822 
-0.85 -0.41 -2.05292 0.801203 0.00911983 0.0087884 -5.6117e-05 0.00896893 1.58146e-07 272.341 
-0.93 -0.39 -0.628456 1.79186 0.0091365 0.00875709 -2.96892e-05 0.00894405 1.57652e-07 272.436 
-0.83 -0.41 -2.06737 1.70298 0.00915343 0.00877518 -2.74797e-05 0.00898802 1.58082e-07 273.031 
-0.91 -0.39 -1.23811 1.04076 0.00911103 0.00873655 -3.78137e-05 0.00893193 1.57759e-07 271.882 
-0.99 -0.37 -0.0543869 2.27907 0.00911081 0.00878412 -5.42106e-05 0.00898999 1.58927e-07 271.638 
-0.81 -0.41 -2.56432 1.18115 0.00912736 0.00874359 -8.66316e-06 0.00895923 1.57984e-07 272.326 
-0.89 -0.39 -0.912356 1.43517 0.00912429 0.00876278 -2.38718e-05 0.00896746 1.58207e-07 272.191 
-0.97 -0.37 -0.0671004 2.11168 0.00911836 0.00876046 -3.83984e-05 0.00897023 1.58448e-07 271.86 
-0.79 -0.41 -3.19091 0.304095 0.00914233 0.00874695 -1.73833e-05 0.00895677 1.58121e-07 272.014 
-0.87 -0.39 -0.828759 1.20772 0.00913509 0.00876774 -6.04897e-05 0.0089718 1.58082e-07 272.537 
-0.95 -0.37 -0.37683 1.72369 0.00912776 0.00873077 -3.99856e-05 0.00892675 1.57651e-07 271.912 
-0.77 -0.41 -4.35118 1.20229 0.00914039 0.00872483 -3.83502e-06 0.00894834 1.58083e-07 271.824 
-0.85 -0.39 -1.93842 1.40137 0.00914695 0.00877862 -6.6238e-05 0.00898221 1.5889e-07 271.467 
-0.93 -0.37 -1.07153 1.79914 0.00914783 0.00874423 -4.91877e-05 0.00895383 1.58252e-07 271.701 
-0.75 -0.41 -4.55649 1.66089 0.00917354 0.0088125 3.07973e-06 0.00900155 1.58724e-07 272.336 
-0.83 -0.39 -2.15552 1.81894 0.00912678 0.00873031 -4.13711e-05 0.00895959 1.58118e-07 272.105 
-0.91 -0.37 -1.19538 1.21595 0.00917782 0.00874927 -2.38313e-05 0.00898778 1.5855e-07 272.218 
-0.99 -0.35 -0.206265 2.42327 0.00906028 0.008756 -8.12387e-05 0.00893532 1.58203e-07 271.223 
-0.81 -0.39 -2.19444 1.28936 0.00917 0.00874686 -1.46777e-05 0.00898403 1.58087e-07 272.902 
-0.89 -0.37 -1.2541 1.47999 0.00918407 0.00874396 -3.39576e-05 0.00897467 1.58457e-07 271.981 
-0.97 -0.35 -0.371364 1.98961 0.0090788 0.00874774 -5.96831e-05 0.00893651 1.58284e-07 271.119 
-0.79 -0.39 -3.42837 1.64154 0.00916841 0.00874713 -1.62324e-05 0.00897309 1.58104e-07 272.539 
-0.87 -0.37 -2.01161 2.09064 0.00920076 0.00878753 -4.25625e-05 0.00898352 1.58483e-07 272.204 
-0.95 -0.35 -0.61677 2.08273 0.00910555 0.00872142 -5.89168e-05 0.00891616 1.5787e-07 271.213 
-0.77 -0.39 -4.33176 1.22051 0.00917576 0.0087417 -2.95834e-05 0.00898406 1.5903e-07 271.284 
-0.85 -0.37 -2.48393 1.63365 0.00915237 0.00877795 -4.18126e-05 0.00898285 1.58919e-07 271.436 
-0.93 -0.35 -1.29792 2.35749 0.00911733 0.00873176 -5.59212e-05 0.00893639 1.58201e-07 271.259 
-0.83 -0.37 -2.8635 2.07229 0.00914533 0.00873175 -4.99119e-05 0.00896042 1.57885e-07 272.532 
-0.91 -0.35 -1.20372 1.70051 0.00911181 0.00873954 -5.10239e-05 0.00892059 1.57919e-07 271.262 
-0.81 -0.37 -3.3141 1.27713 0.00915069 0.00871697 -4.16119e-05 0.00895355 1.58335e-07 271.55 
-0.89 -0.35 -1.85736 1.93627 0.00914738 0.00875075 -5.87203e-05 0.00894589 1.58139e-07 271.653 
-0.79 -0.37 -3.80408 2.75019 0.00915641 0.00874813 -3.97391e-05 0.00896383 1.58174e-07 272.138 
-0.87 -0.35 -2.17414 2.1824 0.00915151 0.0087814 -4.40755e-05 0.00898671 1.58633e-07 272.043 
-0.77 -0.37 -4.08727 2.09975 0.00914652 0.00874532 -2.3967e-05 0.00898073 1.58763e-07 271.639 
-0.85 -0.35 -2.28194 2.3236 0.00919286 0.00875684 -4.87522e-05 0.00898499 1.58617e-07 272.018 
-0.83 -0.35 -2.69737 2.20312 0.00921817 0.00874224 -4.01283e-05 0.00900371 1.59264e-07 271.478 
-0.81 -0.35 -3.76576 1.81573 0.00920595 0.00870775 -5.19029e-05 0.00898265 1.58557e-07 272.05 
-0.79 -0.35 -4.28844 3.01708 0.00922391 0.00873803 -2.5733e-05 0.00897361 1.58534e-07 271.816 
-0.77 -0.35 -3.91494 2.37197 0.00924143 0.00875794 -2.96474e-05 0.00901208 1.59005e-07 272.173 
-0.75 -0.35 -4.33036 2.52007 0.00922267 0.00877687 -1.70116e-05 0.00901879 1.59195e-07 272.05 
-0.75 -0.49 -2.33801 0.18195 0.00908597 0.00878624 2.6341e-05 0.00893018 1.57241e-07 272.724 
-0.75 -0.43 -4.00659 0.46221 0.00913613 0.00882263 1.4758e-05 0.00898504 1.58128e-07 272.862 
-0.75 -0.39 -4.9303 2.2422 0.00918293 0.00878517 -1.11971e-05 0.00901093 1.59042e-07 272.074 
-0.75 -0.37 -4.28854 2.09612 0.00914835 0.0087618 -2.30298e-05 0.00897054 1.58459e-07 271.851 
-0.77 -0.33 -3.86111 2.62453 0.00915866 0.00872824 -4.07045e-05 0.00894811 1.5835e-07 271.359 
-0.73 -0.49 -2.34185 0.359582 0.00908122 0.00878364 2.39543e-05 0.00895214 1.57552e-07 272.856 
-0.73 -0.47 -2.99371 0.189496 0.00910586 0.00880702 7.16095e-06 0.00898648 1.58729e-07 271.871 
-0.73 -0.45 -3.75271 0.453789 0.00913159 0.00880981 2.30222e-06 0.00896721 1.58549e-07 271.597 
-0.73 -0.43 -4.97745 1.49167 0.00912851 0.00881603 8.4797e-06 0.00898824 1.58422e-07 272.451 
-0.73 -0.41 -5.31305 1.65452 0.00917598 0.00881941 -3.48417e-06 0.00901073 1.58715e-07 272.628 
-0.73 -0.39 -4.94283 2.07119 0.00919274 0.0088147 -4.13654e-06 0.00901926 1.58534e-07 273.198 
-0.73 -0.37 -4.44089 2.19899 0.00916088 0.00882531 -3.09806e-05 0.00900692 1.59059e-07 271.924 
-0.73 -0.35 -4.64434 2.51639 0.009182 0.00882312 -2.11565e-06 0.00901467 1.5856e-07 273.014 
-0.81 -0.29 -2.96702 3.58711 0.00914461 0.00871058 -6.87474e-05 0.00892986 1.57672e-07 271.97 
-0.89 -0.27 -1.494 3.46242 0.00911324 0.00871079 -8.80077e-05 0.00890174 1.57331e-07 271.701 
-0.97 -0.25 -0.497119 3.8334 0.00908591 0.00870477 -0.000110288 0.00889357 1.57264e-07 271.567 
-0.83 -0.29 -3.22474 3.19221 0.00912227 0.00869486 -7.5503e-05 0.00892306 1.57072e-07 272.801 
-0.91 -0.27 -1.40631 4.22562 0.00910269 0.00868755 -0.000105091 0.00889378 1.57071e-07 271.907 
-0.99 -0.25 -0.466097 3.25343 0.00905971 0.00870363 -0.000119889 0.00890413 1.57906e-07 270.784 
-0.79 -0.29 -3.45009 3.67936 0.0091646 0.00873232 -7.1238e-05 0.00894033 1.58287e-07 271.231 
-0.87 -0.27 -1.85944 3.84356 0.00913331 0.00877507 -8.37133e-05 0.0089569 1.58047e-07 272.146 
-0.95 -0.25 -0.450607 3.70009 0.00908356 0.00872607 -0.00011395 0.00890505 1.57589e-07 271.356 
-0.77 -0.29 -4.34758 3.28297 0.00917833 0.00872906 -6.38383e-05 0.00895162 1.58771e-07 270.746 
-0.85 -0.27 -1.83148 3.9652 0.00912068 0.00872212 -5.68185e-05 0.00893031 1.57532e-07 272.226 
-0.93 -0.25 -0.775359 3.8931 0.00906949 0.00866561 -9.69797e-05 0.00887808 1.57285e-07 271.058 
-0.75 -0.29 -5.26273 3.44689 0.00917941 0.00875432 -4.36066e-05 0.00898455 1.58539e-07 272.139 
-0.83 -0.27 -2.63306 3.24513 0.00916216 0.00873148 -5.72188e-05 0.00895045 1.58189e-07 271.706 
-0.91 -0.25 -1.00208 3.83065 0.00909095 0.00871194 -9.51924e-05 0.00890088 1.57103e-07 272.069 
-0.99 -0.23 -0.119487 4.10543 0.00902134 0.00871213 -0.000126581 0.00888954 1.57098e-07 271.731 
-0.81 -0.27 -3.42651 4.06649 0.00915551 0.00872313 -9.20214e-05 0.00892733 1.57542e-07 272.116 
-0.89 -0.25 -1.51543 3.90086 0.00908083 0.00868428 -0.000109932 0.00888945 1.57017e-07 271.869 
-0.97 -0.23 -0.243636 3.33699 0.00903457 0.00872535 -0.000135772 0.00889149 1.57462e-07 271.163 
-0.79 -0.27 -3.93248 4.34388 0.00915742 0.00872824 -8.17049e-05 0.00892181 1.57748e-07 271.594 
-0.87 -0.25 -1.83719 4.53067 0.00912584 0.00874659 -8.08512e-05 0.00893928 1.57656e-07 272.284 
-0.95 -0.23 -0.525661 3.95584 0.0090683 0.00870685 -0.000124746 0.0088975 1.57617e-07 271.079 
-0.77 -0.27 -4.154 3.84028 0.00916007 0.0087124 -4.97021e-05 0.00893171 1.58165e-07 271.178 
-0.85 -0.25 -2.32911 4.25745 0.00914501 0.0087324 -0.000101 0.00893608 1.5774e-07 272.042 
-0.93 -0.23 -0.690929 3.68255 0.00908797 0.008675 -0.000133979 0.0088889 1.57353e-07 271.271 
-0.83 -0.25 -3.33842 4.51146 0.00917026 0.00872437 -9.32758e-05 0.0089382 1.5806e-07 271.555 
-0.91 -0.23 -0.970576 4.76082 0.00910185 0.00869396 -0.000109989 0.00889664 1.57061e-07 272.012 
-0.99 -0.21 0.26845 3.39637 0.00914984 0.00873533 -0.00011933 0.0089595 1.58454e-07 271.526 
-0.81 -0.25 -3.97858 4.23753 0.00915959 0.00871874 -6.63341e-05 0.00894599 1.57826e-07 272.196 
-0.89 -0.23 -1.99855 4.17947 0.0091607 0.00868789 -0.000122388 0.00894149 1.57607e-07 272.436 
-0.97 -0.21 0.469476 3.72096 0.00912676 0.0087106 -0.000129524 0.00893563 1.58163e-07 271.3 
-0.79 -0.25 -4.23891 4.63504 0.00914846 0.0087073 -7.49644e-05 0.00892719 1.57958e-07 271.395 
-0.87 -0.23 -2.03184 4.20667 0.00918413 0.00872343 -0.000122777 0.00895226 1.5829e-07 271.588 
-0.95 -0.21 -0.367986 4.29144 0.00908827 0.00868559 -0.000133752 0.00890878 1.57538e-07 271.559 
-0.77 -0.25 -4.14925 3.77421 0.00916956 0.00870402 -6.60923e-05 0.00893536 1.57796e-07 271.923 
-0.85 -0.23 -2.55421 4.99187 0.00916318 0.00875982 -8.83544e-05 0.00897121 1.57988e-07 272.682 
-0.93 -0.21 -0.805814 4.39298 0.00909441 0.00866803 -0.000127664 0.00887384 1.56553e-07 272.195 
-0.83 -0.23 -3.20276 4.96313 0.00912257 0.00868755 -9.50423e-05 0.00892563 1.57439e-07 272.244 
-0.91 -0.21 -1.01268 4.20824 0.00912874 0.00870645 -0.00014406 0.00892211 1.57579e-07 271.895 
-0.99 -0.19 -0.00792911 4.03233 0.00909178 0.00873331 -0.000124372 0.00891631 1.57596e-07 271.689 
-0.81 -0.23 -3.25261 4.3691 0.00917731 0.00871582 -9.91923e-05 0.00895961 1.57817e-07 272.626 
-0.89 -0.21 -1.07199 4.92881 0.00911821 0.00871336 -0.000132061 0.00895257 1.57771e-07 272.49 
-0.97 -0.19 -1.0138 3.82251 0.00913157 0.0087028 -0.000129917 0.00892159 1.58218e-07 270.78 
-0.79 -0.23 -3.28896 4.84297 0.00919968 0.0087146 -7.37619e-05 0.00895608 1.57767e-07 272.604 
-0.87 -0.21 -2.47131 4.91583 0.00909794 0.00865813 -0.000137878 0.00888623 1.57108e-07 271.613 
-0.95 -0.19 -0.681491 4.92592 0.00911577 0.00869811 -0.000102934 0.00891854 1.57823e-07 271.365 
-0.77 -0.23 -3.80001 4.18146 0.00919613 0.00872607 -9.39362e-05 0.0089561 1.58527e-07 271.298 
-0.85 -0.21 -3.46598 5.85335 0.00914129 0.00874058 -8.35608e-05 0.00894506 1.57729e-07 272.334 
-0.93 -0.19 -0.365072 4.47506 0.0091246 0.00868737 -0.000123397 0.00891503 1.57957e-07 271.028 
-0.75 -0.23 -4.2409 3.7792 0.00920395 0.00872976 -8.80723e-05 0.00896973 1.58831e-07 271.191 
-0.83 -0.21 -3.96806 5.2603 0.00917166 0.00872725 -9.08467e-05 0.00895806 1.58177e-07 271.957 
-0.91 -0.19 -1.32164 5.02992 0.00910449 0.00869156 -0.000143806 0.00889933 1.57682e-07 271.023 
-0.81 -0.21 -4.60257 4.43725 0.00913761 0.00868849 -9.22647e-05 0.00892592 1.57744e-07 271.726 
-0.89 -0.19 -2.18317 5.13772 0.00910673 0.0087184 -0.000125189 0.00894038 1.58015e-07 271.698 
-0.79 -0.21 -4.37295 4.49069 0.00912491 0.00871535 -8.66664e-05 0.00892035 1.57607e-07 271.793 
-0.87 -0.19 -2.55346 5.96636 0.00911559 0.00866159 -0.000127424 0.00890328 1.57645e-07 271.207 
-0.77 -0.21 -3.89704 4.49802 0.00913634 0.00872647 -8.21884e-05 0.00896072 1.5835e-07 271.741 
-0.85 -0.19 -2.70928 5.78264 0.00908788 0.00868381 -0.000135108 0.00890487 1.58028e-07 270.598 
-0.75 -0.21 -4.42793 4.65094 0.00914932 0.00873661 -0.000100911 0.00896952 1.58715e-07 271.382 
-0.83 -0.19 -2.68141 5.87129 0.00908945 0.00871575 -7.37242e-05 0.00891808 1.57351e-07 272.165 
-0.81 -0.19 -3.25779 4.57635 0.00909796 0.0087055 -8.8829e-05 0.00891906 1.5773e-07 271.541 
-0.79 -0.19 -3.27534 4.67003 0.00912518 0.00870814 -0.000101981 0.00892985 1.57856e-07 271.653 
-0.77 -0.19 -4.02211 4.82391 0.00915677 0.00875198 -0.000111808 0.00897751 1.59024e-07 271.096 
-0.99 -0.33 0.216416 2.74956 0.00907877 0.00874985 -6.8273e-05 0.00892222 1.57709e-07 271.673 
-0.97 -0.33 -0.0150138 2.39436 0.0091062 0.00876039 -9.29335e-05 0.00895613 1.58061e-07 272.099 
-0.91 -0.33 -0.605616 2.16458 0.00915702 0.00873291 -6.62109e-05 0.00892714 1.57579e-07 272.046 
-0.99 -0.31 0.050224 2.6981 0.00911937 0.0087557 -7.78372e-05 0.00895642 1.58296e-07 271.704 
-0.97 -0.31 0.168614 2.1707 0.0091033 0.00875654 -7.60873e-05 0.00895004 1.58075e-07 271.889 
-0.87 -0.33 -2.37199 2.23624 0.00915846 0.00879199 -7.47897e-05 0.00897093 1.59078e-07 270.806 
-0.95 -0.31 -0.182284 2.68859 0.00908994 0.00869837 -8.75559e-05 0.00891179 1.57644e-07 271.468 
-0.85 -0.33 -2.38072 2.17659 0.00915388 0.00873261 -6.71325e-05 0.00896305 1.58243e-07 271.995 
-0.93 -0.31 -0.721641 2.88243 0.00911411 0.0087045 -9.42763e-05 0.00890015 1.57393e-07 271.546 
-0.91 -0.31 -1.3894 2.70589 0.0091375 0.00873153 -4.97457e-05 0.00892662 1.5766e-07 271.891 
-0.99 -0.29 0.071012 2.62408 0.00902628 0.00873399 -0.000111473 0.00890689 1.57622e-07 271.356 
-0.81 -0.33 -3.33258 3.13342 0.00916144 0.00870611 -4.63813e-05 0.00896282 1.57748e-07 272.843 
-0.89 -0.31 -1.10536 3.24441 0.00913849 0.00873411 -6.04377e-05 0.00894389 1.58129e-07 271.61 
-0.97 -0.29 -0.149721 3.16182 0.00907404 0.00873752 -9.39853e-05 0.00890668 1.5746e-07 271.628 
-0.87 -0.31 -1.62564 3.32416 0.00913497 0.00877734 -5.98003e-05 0.00896172 1.58457e-07 271.587 
-0.95 -0.29 -0.764718 2.69807 0.00909695 0.00869981 -7.36734e-05 0.00890034 1.57312e-07 271.692 
-0.85 -0.31 -3.01732 2.17193 0.00911624 0.00872882 -6.10229e-05 0.00893118 1.58055e-07 271.351 
-0.93 -0.29 -1.26548 3.42819 0.00909711 0.00871604 -8.86616e-05 0.00890618 1.57344e-07 271.813 
-0.83 -0.31 -3.16919 3.0046 0.00912507 0.00871992 -6.51731e-05 0.00893608 1.57493e-07 272.467 
-0.91 -0.29 -1.50014 3.18007 0.00908853 0.00868011 -8.90118e-05 0.00889015 1.57129e-07 271.695 
-0.99 -0.27 0.195616 2.78661 0.00907577 0.00872701 -0.000114367 0.0089217 1.57428e-07 272.143 
-0.81 -0.31 -3.51527 3.44674 0.00913112 0.00870471 -4.15389e-05 0.00893724 1.57676e-07 272.187 
-0.89 -0.29 -2.19438 3.49424 0.00911194 0.0087385 -7.21901e-05 0.00891289 1.57951e-07 270.974 
-0.97 -0.27 -0.660151 3.87671 0.00903566 0.00869374 -0.000100579 0.00889031 1.57085e-07 271.777 
-0.79 -0.31 -3.72999 3.10936 0.00915314 0.00873015 -5.37881e-05 0.00894652 1.58497e-07 271.059 
-0.87 -0.29 -2.2534 3.83162 0.00911422 0.00875509 -4.72354e-05 0.00893535 1.5788e-07 271.778 
-0.95 -0.27 -0.873646 3.29366 0.00907623 0.00870621 -0.000109384 0.00889399 1.57214e-07 271.666 
-0.77 -0.31 -3.92054 2.64182 0.00917116 0.00872665 -5.06411e-05 0.00894772 1.59017e-07 270.209 
-0.85 -0.29 -2.60073 3.29997 0.00916367 0.00874709 -5.60468e-05 0.00896488 1.58256e-07 272.028 
-0.93 -0.27 -1.00224 3.23871 0.00909107 0.00870128 -9.49261e-05 0.00890163 1.57164e-07 271.987 
-0.95 -0.33 -0.304249 2.52213 0.00912276 0.00869324 -6.53262e-05 0.00891861 1.58115e-07 270.866 
-0.93 -0.33 -0.343669 2.6011 0.00914163 0.0087361 -5.40587e-05 0.00894108 1.57966e-07 271.804 
-0.89 -0.33 -1.80596 3.1034 0.00913839 0.00872041 -5.3668e-05 0.00892582 1.58042e-07 271.211 
-0.83 -0.33 -2.86302 2.30984 0.00915077 0.00874103 -4.47703e-05 0.00897881 1.58534e-07 271.974 
-0.75 -0.31 -4.42619 3.05818 0.00918384 0.00874914 -4.19833e-05 0.00897208 1.58403e-07 271.994 
-0.75 -0.27 -3.93432 4.09196 0.00917547 0.0087501 -5.80183e-05 0.00895812 1.58321e-07 271.712 
-0.75 -0.25 -4.53124 3.98746 0.00919449 0.00875241 -6.96318e-05 0.0089683 1.58342e-07 271.985 
-0.75 -0.19 -4.70228 4.91255 0.00915785 0.00872176 -0.000110665 0.00897192 1.589e-07 271.139 
-0.79 -0.33 -3.77061 2.81864 0.00914999 0.00872932 -2.3042e-05 0.00894324 1.5822e-07 271.434 
-0.75 -0.33 -3.83807 3.08774 0.00917736 0.00876556 -2.40213e-05 0.00897331 1.58415e-07 272.011 
-0.81 -0.17 -3.42026 5.43907 0.00915043 0.00872232 -9.85178e-05 0.00892867 1.58125e-07 271.155 
-0.79 -0.17 -4.83016 4.86069 0.00912921 0.00874981 -0.000118983 0.00895625 1.5827e-07 271.742 
-0.75 -0.17 -4.56249 5.24445 0.009154 0.00872344 -0.000116237 0.00895334 1.58007e-07 272.107 
-0.73 -0.31 -4.37992 3.57771 0.00917381 0.0088104 -6.28329e-05 0.00900904 1.58892e-07 272.275 
-0.73 -0.29 -4.84495 2.88072 0.00918708 0.00882134 -4.60471e-05 0.00901942 1.59287e-07 271.911 
-0.73 -0.27 -4.75947 2.47297 0.00919596 0.00881281 -6.17327e-05 0.00902928 1.58991e-07 272.716 
-0.73 -0.25 -4.40981 3.1176 0.00923649 0.00880492 -6.47483e-05 0.00903115 1.59357e-07 272.146 
-0.73 -0.23 -4.75893 3.76752 0.00918868 0.00878289 -6.95089e-05 0.00899385 1.58784e-07 272.001 
-0.73 -0.21 -5.16077 3.82313 0.00917764 0.00876174 -8.53578e-05 0.00897108 1.58211e-07 272.294 
-0.73 -0.19 -4.53761 4.77933 0.00915599 0.00875837 -8.12501e-05 0.00897126 1.58558e-07 271.705 
-0.79 -0.05 -2.7595 7.60064 0.00904781 0.00871805 -0.000131542 0.00887153 1.57196e-07 271.012 
-0.87 -0.03 -2.80882 8.68901 0.00900728 0.00860701 -0.000184918 0.00883765 1.55696e-07 272.577 
-0.83 -0.05 -3.34085 7.50742 0.00901024 0.00866157 -0.000150437 0.00887179 1.57065e-07 271.245 
-0.91 -0.03 -1.96796 8.35919 0.00898974 0.00862656 -0.000187398 0.00882846 1.55961e-07 271.83 
-0.81 -0.05 -2.51504 7.8592 0.00904429 0.00868884 -0.000137784 0.00888132 1.57021e-07 271.614 
-0.89 -0.03 -2.33243 8.40765 0.0089967 0.0086538 -0.000182092 0.00885187 1.5627e-07 272.012 
-0.77 -0.05 -3.53248 6.6411 0.00907441 0.00878117 -0.000132268 0.00893735 1.57883e-07 271.834 
-0.85 -0.03 -2.72948 8.18627 0.00897931 0.00861547 -0.000163953 0.0088198 1.56032e-07 271.441 
-0.75 -0.05 -3.74814 6.37041 0.00906681 0.00874485 -0.000173652 0.00891879 1.57627e-07 271.71 
-0.83 -0.03 -2.48398 7.50464 0.00900551 0.00865254 -0.000170234 0.00884306 1.56489e-07 271.363 
-0.81 -0.03 -3.43534 7.74331 0.00899481 0.00866212 -0.0001575 0.00884254 1.56694e-07 270.992 
-0.79 -0.03 -3.24203 8.27537 0.00906779 0.00871989 -0.000158069 0.00890552 1.57554e-07 271.431 
-0.77 -0.03 -3.51547 6.63874 0.00908703 0.00876963 -0.000153526 0.00894463 1.58104e-07 271.676 
-0.95 -0.17 -0.423833 4.73326 0.00907871 0.00870703 -0.000137051 0.00889591 1.57642e-07 270.987 
-0.99 -0.15 0.141356 4.60287 0.00905458 0.0086941 -0.000174148 0.00889997 1.57433e-07 271.472 
-0.89 -0.17 -1.35384 5.68189 0.00910731 0.00869093 -0.000127117 0.00891077 1.57415e-07 271.832 
-0.97 -0.15 -0.628974 4.84126 0.00908119 0.00867427 -0.000152428 0.00889793 1.57248e-07 271.727 
-0.95 -0.15 -1.1323 5.06064 0.00908737 0.00871543 -0.000157722 0.00892771 1.57772e-07 271.731 
-0.93 -0.15 -1.54827 5.16063 0.0090661 0.00868474 -0.000147389 0.0089148 1.57617e-07 271.605 
-0.83 -0.17 -2.92682 5.80057 0.00912364 0.00871612 -8.62563e-05 0.00891735 1.57786e-07 271.392 
-0.91 -0.15 -1.63583 5.91728 0.00909255 0.00869005 -0.00015077 0.00890017 1.57917e-07 270.644 
-0.99 -0.13 -0.309813 4.64415 0.00904614 0.00869477 -0.000171642 0.00889728 1.57518e-07 271.242 
-0.89 -0.15 -1.7265 6.06474 0.00912146 0.00867333 -0.000127071 0.00892131 1.57876e-07 271.359 
-0.97 -0.13 -0.499483 5.55102 0.00907258 0.00865518 -0.000150063 0.00888616 1.57097e-07 271.63 
-0.87 -0.15 -2.04037 6.9368 0.00911262 0.00870467 -0.000110392 0.00895098 1.57796e-07 272.4 
-0.95 -0.13 -1.05987 5.91381 0.00910415 0.00871002 -0.000173519 0.00892465 1.57635e-07 271.875 
-0.77 -0.17 -4.5905 5.45995 0.00912441 0.00872577 -0.00011413 0.00894555 1.58378e-07 271.234 
-0.85 -0.15 -2.72485 6.32512 0.00907382 0.00862528 -0.000114404 0.00887078 1.56867e-07 271.557 
-0.93 -0.13 -1.59262 5.62699 0.00913112 0.00869515 -0.000155342 0.00893355 1.57845e-07 271.785 
-0.83 -0.15 -3.12036 5.40905 0.00910797 0.00871683 -0.000118428 0.008936 1.58432e-07 270.85 
-0.91 -0.13 -2.1502 5.8981 0.00912361 0.00869083 -0.000168822 0.00892949 1.58157e-07 271.124 
-0.99 -0.11 -0.249771 5.25274 0.00904544 0.00866696 -0.000170603 0.00887654 1.56839e-07 271.782 
-0.81 -0.15 -3.56948 6.25369 0.0091207 0.00873793 -0.000115431 0.00892927 1.57934e-07 271.501 
-0.89 -0.13 -2.51837 5.92215 0.00911189 0.00865044 -0.000129111 0.00891279 1.58004e-07 270.88 
-0.97 -0.11 -0.132463 5.58245 0.00904627 0.00869199 -0.000197906 0.00890915 1.5787e-07 270.998 
-0.79 -0.15 -4.15918 5.03478 0.00915108 0.00876268 -0.00012307 0.008952 1.58014e-07 272.053 
-0.87 -0.13 -2.63921 6.85602 0.00911338 0.00865296 -0.000114993 0.00892582 1.57663e-07 271.862 
-0.95 -0.11 -0.28241 6.17598 0.00905107 0.00867781 -0.000180313 0.00889529 1.57253e-07 271.638 
-0.77 -0.15 -4.19073 4.98985 0.00916183 0.00872526 -0.00013309 0.00894884 1.58354e-07 271.374 
-0.85 -0.13 -2.41159 6.63073 0.00914093 0.0086768 -9.8654e-05 0.00891235 1.57833e-07 271.159 
-0.93 -0.11 -1.00894 6.40111 0.00907136 0.00870526 -0.000176619 0.00892211 1.57857e-07 271.415 
-0.75 -0.15 -4.26846 5.40944 0.00911568 0.00870868 -0.000113858 0.00894141 1.5828e-07 271.275 
-0.83 -0.13 -2.58373 5.81145 0.00914201 0.00868305 -0.000141406 0.00894305 1.58015e-07 271.779 
-0.91 -0.11 -1.81068 6.57922 0.00905986 0.00868063 -0.000154733 0.00890585 1.5741e-07 271.689 
-0.99 -0.09 0.346025 5.252 0.00901278 0.00866301 -0.000214644 0.00884571 1.56317e-07 271.743 
-0.81 -0.13 -3.42442 6.94142 0.00912234 0.00874653 -0.000120139 0.00895092 1.58378e-07 271.396 
-0.89 -0.11 -2.81948 7.02478 0.00905281 0.00862017 -0.000144557 0.00885025 1.5689e-07 270.888 
-0.97 -0.09 -0.120594 6.20516 0.00906577 0.00869875 -0.000188311 0.00891113 1.57462e-07 271.761 
-0.79 -0.13 -3.412 5.85347 0.00911526 0.00875318 -0.000126333 0.00892254 1.57684e-07 271.726 
-0.87 -0.11 -3.21084 6.64169 0.00905818 0.00862887 -0.000116353 0.00888612 1.57492e-07 270.947 
-0.95 -0.09 -0.408918 6.35001 0.00907989 0.00868801 -0.000196096 0.00892019 1.57603e-07 271.795 
-0.77 -0.13 -4.2636 5.29339 0.00910238 0.00870663 -0.000125473 0.00890772 1.57543e-07 271.517 
-0.85 -0.11 -3.29645 6.1147 0.00911609 0.00870737 -0.000137642 0.00892116 1.58005e-07 271.132 
-0.93 -0.09 -0.549903 6.69722 0.00905098 0.00866826 -0.000191967 0.00889852 1.5753e-07 271.26 
-0.83 -0.11 -3.66774 7.10556 0.00910361 0.00867639 -0.000134668 0.00890657 1.57587e-07 271.406 
-0.91 -0.09 -1.44808 7.14957 0.00904423 0.00866211 -0.000130121 0.00889624 1.57077e-07 271.972 
-0.99 -0.07 -0.699876 5.69339 0.00904603 0.00867054 -0.000202133 0.00885778 1.56927e-07 271.055 
-0.81 -0.11 -3.83028 6.41248 0.00913154 0.00873376 -0.000124417 0.00896019 1.57773e-07 272.719 
-0.89 -0.09 -1.55854 7.55175 0.00904071 0.00861644 -0.0001397 0.00886094 1.57176e-07 270.723 
-0.97 -0.07 -0.479669 6.23669 0.00901329 0.00866446 -0.000214786 0.00884679 1.56664e-07 271.173 
-0.79 -0.11 -3.64036 6.36162 0.00912035 0.00873506 -0.000112461 0.00894263 1.58397e-07 271.112 
-0.87 -0.09 -2.02213 7.20312 0.00908257 0.00866037 -0.000176297 0.00889869 1.5772e-07 270.938 
-0.95 -0.07 -0.721478 6.89049 0.00900978 0.00869844 -0.000182118 0.00886002 1.56726e-07 271.471 
-0.77 -0.11 -3.9971 6.25584 0.00912322 0.00872151 -0.000124121 0.00894354 1.5794e-07 271.923 
-0.85 -0.09 -2.6125 6.6642 0.00905914 0.00864925 -0.000156887 0.00887472 1.57412e-07 270.737 
-0.93 -0.07 -1.70825 7.41291 0.00900907 0.00862899 -0.00017002 0.00885749 1.56543e-07 271.712 
-0.75 -0.11 -4.10601 5.9655 0.00911563 0.00873831 -0.000129953 0.00894755 1.58376e-07 271.297 
-0.83 -0.09 -3.0761 7.31182 0.00910257 0.00870784 -0.000136647 0.00893214 1.58071e-07 271.353 
-0.91 -0.07 -1.7713 6.99555 0.00901942 0.00863684 -0.000174206 0.0088707 1.56623e-07 271.977 
-0.99 -0.05 0.244672 6.09055 0.0089464 0.00862532 -0.000227971 0.00880962 1.55718e-07 271.674 
-0.81 -0.09 -3.48238 6.65273 0.00909151 0.00871346 -0.000135038 0.00891191 1.5774e-07 271.306 
-0.89 -0.07 -1.88343 7.57018 0.00904508 0.00864559 -0.000178462 0.00888234 1.57035e-07 271.619 
-0.97 -0.05 -0.459409 6.1784 0.00897081 0.00869019 -0.000193816 0.00885593 1.56575e-07 271.607 
-0.79 -0.09 -4.18071 6.34662 0.00910869 0.00876405 -0.000124228 0.00892667 1.57885e-07 271.506 
-0.87 -0.07 -2.25504 7.80536 0.00905187 0.00865328 -0.000158558 0.00890228 1.57719e-07 271.049 
-0.95 -0.05 -0.446858 7.52607 0.00896892 0.00867148 -0.000206641 0.00885133 1.56615e-07 271.398 
-0.77 -0.09 -4.26037 6.49496 0.00911391 0.00871382 -0.000122839 0.00893069 1.57788e-07 271.796 
-0.85 -0.07 -2.99484 7.57365 0.00905714 0.00863841 -0.000145521 0.008882 1.56777e-07 272.057 
-0.93 -0.05 -0.640536 8.24967 0.00896707 0.00860841 -0.000182814 0.00882069 1.56069e-07 271.404 
-0.75 -0.09 -4.53374 6.5668 0.00911393 0.00873544 -0.000133233 0.00894312 1.58257e-07 271.366 
-0.83 -0.07 -3.11562 7.64669 0.00906473 0.00868306 -0.000152434 0.00889372 1.57242e-07 271.61 
-0.91 -0.05 -1.65831 8.00783 0.00899319 0.0086488 -0.00017007 0.00886337 1.56281e-07 272.348 
-0.99 -0.03 -0.292435 6.45625 0.00897234 0.00863007 -0.000218208 0.00881004 1.56274e-07 270.721 
-0.81 -0.07 -3.47463 7.60163 0.00905395 0.00871557 -0.000142633 0.00889824 1.57186e-07 271.845 
-0.89 -0.05 -2.1585 7.41563 0.00901126 0.0086545 -0.000179493 0.00885122 1.56387e-07 271.791 