ITEM: TIMESTEP
985000
ITEM: NUMBER OF CELLS
5000
ITEM: BOX BOUNDS ss ss pp
-1 1
-0.5 0.5
-0.5 0.5
ITEM: CELLS xc yc f_U[*] f_V[*] f_Tau[1] f_Tau[2] f_Tau[3] f_Press[*] f_Mrho[*] f_Ttra[*] 
-0.99 -0.49 -0.21265 0.297459 0.00899304 0.0087463 -2.75936e-05 0.0088789 1.56621e-07 272.232 
-0.97 -0.49 -0.569953 0.0712247 0.00899022 0.0087457 -3.17033e-05 0.00888037 1.56571e-07 272.364 
-0.95 -0.49 -0.662991 -0.00774071 0.00899095 0.00874308 -3.30217e-05 0.0088762 1.56631e-07 272.132 
-0.93 -0.49 -0.838313 0.117352 0.00900039 0.00875087 -2.26152e-05 0.00888152 1.5674e-07 272.105 
-0.91 -0.49 -1.13025 0.105601 0.00900503 0.0087244 -2.2101e-05 0.00886866 1.56553e-07 272.037 
-0.99 -0.47 -0.201745 0.58561 0.00902042 0.00876921 -1.46074e-05 0.0089033 1.56987e-07 272.345 
-0.89 -0.49 -1.51916 0.235339 0.00902434 0.00874306 -2.72192e-05 0.00888615 1.56849e-07 272.059 
-0.97 -0.47 -0.42115 0.328941 0.00901711 0.00874585 -3.31736e-05 0.00889492 1.56768e-07 272.467 
-0.87 -0.49 -1.6863 -0.00897538 0.00904339 0.00876947 -1.59433e-05 0.00890619 1.57146e-07 272.156 
-0.95 -0.47 -0.790767 0.318728 0.00902281 0.00874635 -3.34065e-05 0.00889398 1.56806e-07 272.374 
-0.85 -0.49 -1.83912 0.124417 0.00904546 0.00875222 -6.69874e-06 0.00889927 1.56888e-07 272.392 
-0.93 -0.47 -1.03233 0.271031 0.00902727 0.00874395 -3.60296e-05 0.00889142 1.56793e-07 272.316 
-0.83 -0.49 -1.88896 -0.0271255 0.00905004 0.00876407 2.07427e-07 0.00891346 1.57154e-07 272.364 
-0.91 -0.47 -1.33453 0.635374 0.00904077 0.0087325 -3.37467e-05 0.00889169 1.56947e-07 272.059 
-0.99 -0.45 -0.0941955 0.920443 0.00904533 0.00877075 -2.54479e-05 0.00891749 1.57202e-07 272.405 
-0.81 -0.49 -2.12457 0.309372 0.00905906 0.00877097 1.30616e-05 0.00892272 1.57316e-07 272.368 
-0.89 -0.47 -1.64991 0.417311 0.00904059 0.00873999 -3.36744e-05 0.00888986 1.56976e-07 271.952 
-0.97 -0.45 -0.403122 0.640304 0.00904958 0.00875845 -3.30624e-05 0.008912 1.57144e-07 272.337 
-0.79 -0.49 -2.51883 0.0736978 0.00906723 0.00877895 1.36566e-05 0.00893029 1.5749e-07 272.298 
-0.87 -0.47 -1.91078 0.238728 0.00904223 0.00875015 -2.61943e-05 0.00890681 1.5714e-07 272.185 
-0.95 -0.45 -0.794712 0.715633 0.00905244 0.00874702 -3.79997e-05 0.00890643 1.56971e-07 272.468 
-0.77 -0.49 -2.51423 -0.0362389 0.00907024 0.00879546 2.2522e-05 0.00894289 1.57653e-07 272.4 
-0.85 -0.47 -2.08386 0.29805 0.00905186 0.0087497 -1.19818e-05 0.00891177 1.5712e-07 272.372 
-0.93 -0.45 -1.24599 0.527138 0.00906098 0.00873982 -4.66863e-05 0.00890479 1.57101e-07 272.192 
-0.83 -0.47 -2.44215 0.153804 0.0090609 0.00875578 -8.60673e-06 0.00892018 1.57247e-07 272.41 
-0.91 -0.45 -1.38618 0.796465 0.00905994 0.00873651 -3.84244e-05 0.00889914 1.57171e-07 271.899 
-0.99 -0.43 -0.177659 1.1652 0.00906434 0.00876837 -3.52984e-05 0.00893278 1.57665e-07 272.07 
-0.81 -0.47 -2.57381 0.544659 0.00907228 0.00876033 -2.19252e-06 0.00892974 1.5743e-07 272.384 
-0.89 -0.45 -1.77848 0.793608 0.00907195 0.00873044 -3.8157e-05 0.00890101 1.57164e-07 271.966 
-0.97 -0.43 -0.502779 1.01167 0.00908038 0.00876989 -3.81378e-05 0.00893473 1.57546e-07 272.336 
-0.79 -0.47 -2.8529 0.410978 0.00908618 0.00877233 8.68621e-06 0.00894595 1.57748e-07 272.329 
-0.87 -0.45 -2.10923 0.562563 0.00907609 0.00874107 -2.27452e-05 0.00891272 1.57211e-07 272.243 
-0.95 -0.43 -0.746355 0.941695 0.00908513 0.00875153 -4.64649e-05 0.00892063 1.57428e-07 272.11 
-0.77 -0.47 -3.21231 0.0856415 0.00909678 0.00879034 1.14786e-05 0.00895262 1.57938e-07 272.204 
-0.85 -0.45 -2.3933 0.425161 0.00908369 0.00874192 -2.22809e-05 0.0089209 1.57288e-07 272.36 
-0.93 -0.43 -0.924231 0.952623 0.00908479 0.00874012 -4.04932e-05 0.0089164 1.57316e-07 272.175 
-0.75 -0.47 -3.27417 0.394571 0.00910257 0.00879788 1.76051e-05 0.00895582 1.57747e-07 272.631 
-0.83 -0.45 -2.59967 0.468596 0.00909709 0.00875557 -1.96319e-05 0.00893428 1.57608e-07 272.215 
-0.91 -0.43 -1.47996 1.09192 0.0090863 0.00873658 -4.43509e-05 0.00891055 1.57254e-07 272.103 
-0.99 -0.41 -0.209878 1.54638 0.00908307 0.00876791 -5.06435e-05 0.00893811 1.57726e-07 272.127 
-0.81 -0.45 -2.90581 0.854702 0.009097 0.00874503 -1.2749e-05 0.00893205 1.57559e-07 272.231 
-0.89 -0.43 -1.55544 1.07781 0.00907944 0.0087238 -4.16618e-05 0.00890433 1.57236e-07 271.944 
-0.97 -0.41 -0.392497 1.14044 0.00909287 0.00876922 -4.87491e-05 0.00893668 1.57578e-07 272.339 
-0.79 -0.45 -3.03446 0.64882 0.00910523 0.00876464 9.82571e-09 0.00894631 1.57797e-07 272.254 
-0.87 -0.43 -1.84297 0.812237 0.00908959 0.00873108 -4.04825e-05 0.00891938 1.57336e-07 272.23 
-0.95 -0.41 -0.552204 1.26133 0.00910057 0.00875948 -4.52512e-05 0.00893988 1.57645e-07 272.321 
-0.77 -0.45 -3.39996 0.467034 0.0091135 0.00878451 7.65136e-06 0.00895615 1.57862e-07 272.441 
-0.85 -0.43 -2.16946 0.819321 0.00910721 0.00874223 -3.01651e-05 0.00893257 1.57591e-07 272.193 
-0.93 -0.41 -1.15925 1.40595 0.00909704 0.00872856 -4.40902e-05 0.00892567 1.57504e-07 272.132 
-0.75 -0.45 -3.68475 0.490415 0.00911241 0.00879011 1.27414e-05 0.00895742 1.57981e-07 272.275 
-0.83 -0.43 -2.61917 0.828476 0.00910609 0.0087439 -1.78994e-05 0.00893138 1.57536e-07 272.251 
-0.91 -0.41 -1.29043 1.33459 0.00910036 0.00873672 -4.00708e-05 0.0089246 1.57632e-07 271.879 
-0.99 -0.39 -0.128911 1.80584 0.00908547 0.00877161 -5.29061e-05 0.00894243 1.57889e-07 271.977 
-0.81 -0.43 -3.05736 1.04858 0.00911429 0.0087419 -1.73253e-05 0.00894104 1.57763e-07 272.153 
-0.89 -0.41 -1.59859 1.30933 0.00910222 0.00873232 -4.41226e-05 0.00892155 1.57388e-07 272.207 
-0.97 -0.39 -0.523068 1.37599 0.0090932 0.0087711 -5.3699e-05 0.00893951 1.57774e-07 272.087 
-0.79 -0.43 -3.37065 0.895821 0.00912336 0.008754 -8.81168e-06 0.00895146 1.57946e-07 272.154 
-0.87 -0.41 -2.02057 1.2385 0.00910199 0.00872284 -4.21965e-05 0.00892515 1.57371e-07 272.346 
-0.95 -0.39 -0.869594 1.58587 0.00909048 0.0087485 -4.8812e-05 0.00892532 1.57479e-07 272.165 
-0.77 -0.43 -3.5926 0.751765 0.00913278 0.00877647 3.01693e-06 0.00896442 1.58135e-07 272.223 
-0.85 -0.41 -2.59014 1.15942 0.00909916 0.00873628 -3.845e-05 0.00892998 1.57625e-07 272.054 
-0.93 -0.39 -0.801284 1.70144 0.00910089 0.00873073 -4.30476e-05 0.00892412 1.57512e-07 272.071 
-0.83 -0.41 -2.76367 1.22188 0.0091139 0.00873206 -3.13852e-05 0.00893003 1.5761e-07 272.082 
-0.91 -0.39 -1.24282 1.72125 0.00910756 0.00873741 -4.82983e-05 0.00893266 1.57626e-07 272.134 
-0.99 -0.37 0.0639217 2.04993 0.00908375 0.00878271 -6.26115e-05 0.00894572 1.57998e-07 271.891 
-0.81 -0.41 -2.96262 1.37279 0.00912401 0.00873602 -1.99552e-05 0.00893801 1.57745e-07 272.092 
-0.89 -0.39 -1.55242 1.57637 0.00911426 0.0087362 -4.80023e-05 0.00893719 1.57658e-07 272.218 
-0.97 -0.37 -0.391118 1.96731 0.00909066 0.00875794 -6.09917e-05 0.00893673 1.5775e-07 272.044 
-0.79 -0.41 -3.2714 1.10623 0.00913553 0.00875063 -1.90182e-05 0.00895558 1.58023e-07 272.146 
-0.87 -0.39 -1.89128 1.65113 0.00911751 0.00871338 -4.58597e-05 0.0089291 1.57636e-07 272.009 
-0.95 -0.37 -0.781976 1.71664 0.00910542 0.00874518 -5.26972e-05 0.00893455 1.57746e-07 271.985 
-0.77 -0.41 -3.64401 1.16114 0.00913975 0.00876971 -1.63208e-05 0.00896919 1.58276e-07 272.125 
-0.85 -0.39 -2.2221 1.63215 0.0091293 0.00873808 -4.12939e-05 0.00894479 1.58001e-07 271.858 
-0.93 -0.37 -1.2357 1.89961 0.00911173 0.00873353 -5.67396e-05 0.00893427 1.5773e-07 272.003 
-0.75 -0.41 -3.94042 1.00804 0.00915704 0.0087882 -7.78963e-06 0.0089839 1.58464e-07 272.247 
-0.83 -0.39 -2.66894 1.48891 0.00912627 0.00872301 -4.06961e-05 0.00893086 1.57667e-07 272.008 
-0.91 -0.37 -1.38384 1.96585 0.00912511 0.00873537 -5.93055e-05 0.00893937 1.57671e-07 272.261 
-0.99 -0.35 -0.208673 2.17074 0.00909858 0.00877745 -7.50907e-05 0.0089499 1.58146e-07 271.763 
-0.81 -0.39 -2.9653 1.55611 0.00913236 0.0087312 -3.67193e-05 0.00894176 1.57697e-07 272.288 
-0.89 -0.37 -1.66263 1.93448 0.0091318 0.00873222 -5.09244e-05 0.00894191 1.57911e-07 271.925 
-0.97 -0.35 -0.360094 2.40493 0.00910763 0.00875227 -6.73997e-05 0.00894362 1.5789e-07 272.013 
-0.79 -0.39 -3.23747 1.54082 0.0091403 0.00873895 -2.50401e-05 0.00895467 1.58108e-07 271.973 
-0.87 -0.37 -2.12343 2.14886 0.00913203 0.00871578 -5.10705e-05 0.00893476 1.57663e-07 272.135 
-0.95 -0.35 -0.702042 2.06624 0.00911526 0.00873965 -6.58177e-05 0.00893558 1.57746e-07 272.016 
-0.77 -0.39 -3.71624 1.53748 0.00915251 0.00877399 -1.95864e-05 0.0089784 1.58428e-07 272.143 
-0.85 -0.37 -2.55258 2.02677 0.00913397 0.00872976 -5.11799e-05 0.00893888 1.57834e-07 271.965 
-0.93 -0.35 -1.14663 2.29921 0.00912369 0.00873645 -6.48979e-05 0.00893908 1.57813e-07 272.008 
-0.83 -0.37 -3.03773 1.82191 0.00914139 0.00872029 -4.04787e-05 0.00893406 1.57786e-07 271.9 
-0.91 -0.35 -1.53237 2.30023 0.00911833 0.008734 -5.56153e-05 0.00892884 1.57588e-07 272.084 
-0.81 -0.37 -3.30001 1.68939 0.00914613 0.0087252 -3.46128e-05 0.00894931 1.57957e-07 272.071 
-0.89 -0.35 -1.95884 2.44006 0.00911799 0.00872411 -5.59687e-05 0.0089258 1.57558e-07 272.042 
-0.79 -0.37 -3.67332 1.97459 0.00914862 0.00873582 -3.439e-05 0.00896193 1.58286e-07 271.887 
-0.87 -0.35 -2.33641 2.34365 0.0091313 0.00871868 -5.6882e-05 0.00893646 1.57755e-07 272.027 
-0.77 -0.37 -3.88625 2.00217 0.00915812 0.00876998 -2.93275e-05 0.00897435 1.58275e-07 272.283 
-0.85 -0.35 -2.70155 2.57063 0.00914118 0.00871978 -5.32187e-05 0.00893613 1.57879e-07 271.804 
-0.83 -0.35 -3.07329 2.18937 0.00914327 0.00871601 -4.66157e-05 0.00893521 1.57866e-07 271.797 
-0.81 -0.35 -3.49203 2.10233 0.00915177 0.00872598 -4.79235e-05 0.00895169 1.58011e-07 272.049 
-0.79 -0.35 -3.78465 2.22008 0.00916788 0.00873534 -4.39029e-05 0.00896328 1.58358e-07 271.805 
-0.77 -0.35 -3.95952 2.26569 0.00917816 0.00875419 -3.85737e-05 0.0089763 1.58345e-07 272.223 
-0.75 -0.35 -4.24684 2.24243 0.00918853 0.00877803 -2.72066e-05 0.00899311 1.58703e-07 272.116 
-0.75 -0.49 -2.7687 0.208751 0.00907727 0.0087981 2.36224e-05 0.00893976 1.57625e-07 272.352 
-0.75 -0.43 -3.83212 0.729765 0.00914416 0.00879008 6.88006e-07 0.00897654 1.58229e-07 272.43 
-0.75 -0.39 -4.37758 1.41508 0.00915454 0.00878143 -2.3521e-05 0.00898106 1.58468e-07 272.155 
-0.75 -0.37 -4.12045 1.86428 0.00916131 0.00877753 -2.08061e-05 0.00897886 1.58414e-07 272.181 
-0.77 -0.33 -3.9138 2.53038 0.00916511 0.00874616 -4.90445e-05 0.00896258 1.58391e-07 271.727 
-0.73 -0.49 -3.0741 0.15812 0.00908346 0.00881572 2.49436e-05 0.00895776 1.57942e-07 272.353 
-0.73 -0.47 -3.35775 0.261049 0.00910803 0.00880522 2.38767e-05 0.00897118 1.58143e-07 272.415 
-0.73 -0.45 -3.83217 0.384841 0.00912577 0.00880537 1.38932e-05 0.00897648 1.58296e-07 272.312 
-0.73 -0.43 -4.28986 0.888971 0.00915243 0.00880567 3.41522e-07 0.00898941 1.58444e-07 272.45 
-0.73 -0.41 -4.34875 1.19564 0.00916814 0.00880453 -7.60419e-06 0.0089961 1.58659e-07 272.283 
-0.73 -0.39 -4.42264 1.52436 0.00916265 0.00879673 -9.83776e-06 0.00898616 1.5854e-07 272.186 
-0.73 -0.37 -4.65426 1.81613 0.00916248 0.00877928 -2.41226e-05 0.00897867 1.58526e-07 271.983 
-0.73 -0.35 -4.59852 2.07969 0.0091874 0.00878188 -2.40179e-05 0.00898879 1.58625e-07 272.12 
-0.81 -0.29 -3.29846 3.34055 0.00915742 0.00871698 -6.74339e-05 0.00894404 1.58025e-07 271.793 
-0.89 -0.27 -1.83222 3.84316 0.00912916 0.00870053 -8.86259e-05 0.00893093 1.57708e-07 271.939 
-0.97 -0.25 -0.497006 3.76923 0.00909126 0.00872178 -0.000111621 0.00891814 1.57654e-07 271.643 
-0.83 -0.29 -2.93137 3.52489 0.00914811 0.00871863 -6.95808e-05 0.00894324 1.57854e-07 272.064 
-0.91 -0.27 -1.38163 3.88366 0.00912726 0.00870482 -8.88618e-05 0.00892953 1.57688e-07 271.932 
-0.99 -0.25 -0.233734 3.78987 0.00908856 0.00875391 -0.000119354 0.00893499 1.57962e-07 271.626 
-0.79 -0.29 -3.59068 3.2142 0.00916804 0.00872441 -6.11742e-05 0.0089537 1.58166e-07 271.844 
-0.87 -0.27 -2.36734 3.98226 0.00913597 0.00870762 -7.23148e-05 0.0089399 1.57842e-07 271.983 
-0.95 -0.25 -0.76045 3.7871 0.00910525 0.00872107 -0.00010584 0.00892955 1.5785e-07 271.654 
-0.77 -0.29 -3.93788 3.28771 0.00917883 0.00873926 -5.33176e-05 0.0089694 1.58436e-07 271.856 
-0.85 -0.27 -2.69526 3.74411 0.00914854 0.00871287 -7.27324e-05 0.00894286 1.57922e-07 271.934 
-0.93 -0.25 -1.17719 4.09733 0.00910608 0.00870801 -0.000108726 0.00892246 1.57609e-07 271.852 
-0.75 -0.29 -4.45712 3.23078 0.00918435 0.00875896 -5.67894e-05 0.00898461 1.58631e-07 271.983 
-0.83 -0.27 -3.07542 3.68328 0.00915663 0.00872494 -7.31843e-05 0.00895201 1.58039e-07 272.01 
-0.91 -0.25 -1.52935 4.26632 0.00911701 0.00869565 -0.000101003 0.00892014 1.57582e-07 271.828 
-0.99 -0.23 -0.0854206 4.08012 0.00906208 0.00874461 -0.000128135 0.00891937 1.57654e-07 271.682 
-0.81 -0.27 -3.4815 3.76954 0.00915843 0.00871343 -8.00936e-05 0.00894446 1.58029e-07 271.799 
-0.89 -0.25 -1.99819 4.23064 0.00912556 0.00869232 -8.7217e-05 0.00892892 1.57651e-07 271.978 
-0.97 -0.23 -0.389562 4.02218 0.00908254 0.00872794 -0.000122368 0.00891799 1.57673e-07 271.606 
-0.79 -0.27 -4.04777 3.65358 0.00916891 0.00871189 -7.09075e-05 0.00894534 1.58223e-07 271.492 
-0.87 -0.25 -2.17701 4.36381 0.00913892 0.00870287 -8.76651e-05 0.00894028 1.57949e-07 271.809 
-0.95 -0.23 -0.864574 4.27543 0.00909025 0.00870998 -0.000122388 0.0089143 1.57571e-07 271.669 
-0.77 -0.27 -4.37389 3.60583 0.00917466 0.00874005 -6.17544e-05 0.00896959 1.58557e-07 271.656 
-0.85 -0.25 -2.64744 4.12272 0.00915293 0.00871382 -8.76929e-05 0.00894628 1.5792e-07 272.042 
-0.93 -0.23 -1.244 4.44114 0.00910409 0.00870673 -0.000113841 0.00892218 1.57532e-07 271.978 
-0.83 -0.25 -3.10484 4.08896 0.00916104 0.00871318 -8.09934e-05 0.00893959 1.58051e-07 271.613 
-0.91 -0.23 -1.5366 4.50647 0.0091068 0.00868098 -0.000103459 0.00891847 1.57422e-07 272.054 
-0.99 -0.21 -0.0158302 4.26179 0.00909389 0.00874504 -0.000134521 0.00893362 1.57917e-07 271.663 
-0.81 -0.25 -3.37811 4.1872 0.00916595 0.00872389 -7.51989e-05 0.00895351 1.58209e-07 271.764 
-0.89 -0.23 -1.8657 4.79908 0.00912057 0.00869056 -0.000102866 0.00892379 1.57588e-07 271.93 
-0.97 -0.21 -0.239677 4.40834 0.00909898 0.00870951 -0.000132586 0.0089157 1.57644e-07 271.587 
-0.79 -0.25 -3.82768 4.22458 0.00915444 0.00870295 -7.73747e-05 0.00893924 1.58113e-07 271.496 
-0.87 -0.23 -2.43416 4.56564 0.00913508 0.0087006 -0.00010341 0.00893021 1.57786e-07 271.783 
-0.95 -0.21 -0.567006 4.69272 0.00910442 0.00871177 -0.000124494 0.00892292 1.57585e-07 271.908 
-0.77 -0.25 -4.30379 3.81429 0.00916292 0.00873327 -7.77102e-05 0.00895438 1.58284e-07 271.662 
-0.85 -0.23 -2.65183 4.64525 0.00913771 0.00870953 -9.04259e-05 0.00893128 1.57782e-07 271.823 
-0.93 -0.21 -1.12439 4.8402 0.00910343 0.00869358 -0.000119312 0.00891525 1.57637e-07 271.584 
-0.83 -0.23 -3.07857 4.49647 0.00913191 0.008702 -8.3897e-05 0.00892561 1.57778e-07 271.658 
-0.91 -0.21 -1.46415 4.77215 0.00911425 0.00868112 -0.000115649 0.008918 1.57565e-07 271.793 
-0.99 -0.19 -0.221329 4.46911 0.00907882 0.00873506 -0.000148939 0.00892223 1.57652e-07 271.772 
-0.81 -0.23 -3.56283 4.47943 0.00914241 0.00871571 -8.03394e-05 0.0089419 1.57966e-07 271.83 
-0.89 -0.21 -1.78761 5.25591 0.00912292 0.00869345 -0.000113025 0.00893036 1.57673e-07 271.983 
-0.97 -0.19 -0.565392 4.7831 0.00908744 0.00870086 -0.000138294 0.00890619 1.575e-07 271.544 
-0.79 -0.23 -3.7968 4.59633 0.00916265 0.00871416 -7.87941e-05 0.00895175 1.58199e-07 271.728 
-0.87 -0.21 -2.1636 5.03218 0.00912415 0.00868266 -0.000110098 0.00891943 1.57737e-07 271.54 
-0.95 -0.19 -0.833714 5.01961 0.00909928 0.00870847 -0.000130375 0.00891416 1.57573e-07 271.663 
-0.77 -0.23 -4.13319 4.30146 0.00916816 0.00873246 -8.95355e-05 0.0089613 1.58366e-07 271.731 
-0.85 -0.21 -2.78417 4.95298 0.00913516 0.00869814 -9.45502e-05 0.00893196 1.57805e-07 271.804 
-0.93 -0.19 -0.919826 5.24308 0.00910933 0.00868966 -0.0001251 0.00891653 1.57606e-07 271.677 
-0.75 -0.23 -4.59907 4.0284 0.00917702 0.00874895 -8.42782e-05 0.00897239 1.58482e-07 271.868 
-0.83 -0.21 -3.1486 4.83425 0.00915405 0.00870532 -9.11989e-05 0.00894195 1.57857e-07 272.019 
-0.91 -0.19 -1.40429 5.24855 0.00910987 0.00867348 -0.000122583 0.00890747 1.57443e-07 271.681 
-0.81 -0.21 -3.4185 4.83961 0.00915532 0.00871365 -8.65061e-05 0.00895216 1.58214e-07 271.715 
-0.89 -0.19 -1.90254 5.60723 0.00911686 0.00868824 -0.000115757 0.00891934 1.5754e-07 271.877 
-0.79 -0.21 -3.73302 4.99569 0.00915027 0.00871476 -9.16974e-05 0.00894669 1.58219e-07 271.54 
-0.87 -0.19 -2.36601 5.44893 0.00911721 0.0086821 -0.000108493 0.00891598 1.57621e-07 271.635 
-0.77 -0.21 -4.22816 4.75749 0.00916095 0.00873726 -9.29352e-05 0.00895911 1.5834e-07 271.709 
-0.85 -0.19 -2.62062 5.38454 0.00912165 0.00868517 -0.000111514 0.00892041 1.57712e-07 271.613 
-0.75 -0.21 -4.65145 4.39761 0.00916363 0.00874157 -9.37308e-05 0.00896448 1.58448e-07 271.687 
-0.83 -0.19 -2.92728 5.1644 0.00912269 0.00870226 -0.000103583 0.00892833 1.57787e-07 271.725 
-0.81 -0.19 -3.28565 5.22775 0.00914397 0.00870143 -9.69501e-05 0.00893599 1.57978e-07 271.63 
-0.79 -0.19 -3.85203 5.33422 0.00916377 0.00873015 -9.68406e-05 0.00896106 1.58307e-07 271.826 
-0.77 -0.19 -4.1537 5.29451 0.00916973 0.00873624 -0.000102412 0.00896598 1.58457e-07 271.717 
-0.99 -0.33 -0.125661 2.46802 0.00909998 0.00877355 -8.51101e-05 0.0089469 1.57985e-07 271.949 
-0.97 -0.33 -0.45057 2.52024 0.0091137 0.0087493 -8.13873e-05 0.00894283 1.57884e-07 271.999 
-0.91 -0.33 -1.69125 2.7993 0.00914662 0.00872685 -6.52114e-05 0.00893856 1.57803e-07 272.009 
-0.99 -0.31 -0.159463 2.80472 0.00908593 0.00876291 -9.56109e-05 0.00893606 1.57809e-07 271.922 
-0.97 -0.31 -0.40004 2.80082 0.00909602 0.00874708 -8.82559e-05 0.00893208 1.57932e-07 271.59 
-0.87 -0.33 -2.24811 2.78242 0.00915164 0.00872454 -6.11528e-05 0.00894864 1.57966e-07 272.035 
-0.95 -0.31 -0.922406 3.10752 0.00910421 0.00872502 -8.53542e-05 0.00892732 1.57607e-07 272.004 
-0.85 -0.33 -2.4268 2.73653 0.00914323 0.00870967 -5.55517e-05 0.00893622 1.57657e-07 272.189 
-0.93 -0.31 -1.26624 3.08509 0.0091226 0.00873175 -8.3484e-05 0.00893915 1.57781e-07 272.064 
-0.91 -0.31 -1.49647 3.06304 0.00913537 0.0087152 -7.06026e-05 0.00894238 1.57704e-07 272.296 
-0.99 -0.29 -0.154374 3.08485 0.00908124 0.00876304 -0.000102216 0.00893704 1.57894e-07 271.805 
-0.81 -0.33 -3.42667 2.52505 0.00915696 0.00872505 -5.05104e-05 0.00895437 1.58134e-07 271.919 
-0.89 -0.31 -1.75542 3.03639 0.00913785 0.00871705 -6.14658e-05 0.00894248 1.57798e-07 272.137 
-0.97 -0.29 -0.501872 3.20469 0.00909074 0.00873436 -9.83521e-05 0.0089252 1.57624e-07 271.911 
-0.87 -0.31 -2.21023 3.10229 0.00914216 0.00872195 -6.24401e-05 0.00893969 1.57909e-07 271.86 
-0.95 -0.29 -0.753735 3.40677 0.00910357 0.00872451 -9.7719e-05 0.00892892 1.57644e-07 271.989 
-0.85 -0.31 -2.5585 2.89881 0.00914968 0.00870852 -5.98975e-05 0.00894126 1.5789e-07 271.94 
-0.93 -0.29 -1.07204 3.25607 0.00910771 0.00872488 -8.82909e-05 0.00892527 1.5756e-07 272.023 
-0.83 -0.31 -2.80863 3.20859 0.00915524 0.00871846 -5.60884e-05 0.00894956 1.57993e-07 272.016 
-0.91 -0.29 -1.28398 3.49322 0.00910503 0.00870173 -8.14643e-05 0.0089131 1.57444e-07 271.852 
-0.99 -0.27 -0.0925676 3.42161 0.00909429 0.00875713 -0.000111639 0.00894068 1.58042e-07 271.661 
-0.81 -0.31 -3.15324 3.00034 0.00915635 0.00871888 -5.92267e-05 0.00895419 1.58088e-07 271.992 
-0.89 -0.29 -1.67949 3.45132 0.00912184 0.00871385 -7.6055e-05 0.00892968 1.57642e-07 272.016 
-0.97 -0.27 -0.512154 3.49211 0.00909893 0.00873144 -0.000107641 0.00893091 1.57693e-07 271.965 
-0.79 -0.31 -3.65544 2.74673 0.00915937 0.00873114 -5.5457e-05 0.00895447 1.58236e-07 271.746 
-0.87 -0.29 -2.08816 3.49475 0.00913399 0.00871566 -6.22361e-05 0.00893828 1.57854e-07 271.913 
-0.95 -0.27 -0.666506 3.64097 0.00910032 0.00872005 -0.000100731 0.00892441 1.5756e-07 271.997 
-0.77 -0.31 -4.1679 2.8636 0.00916148 0.00873999 -5.13304e-05 0.00895309 1.58241e-07 271.697 
-0.85 -0.29 -2.63203 3.3301 0.00913909 0.00870801 -6.50699e-05 0.00893193 1.57789e-07 271.831 
-0.93 -0.27 -0.936178 3.59174 0.00911045 0.00871157 -9.42587e-05 0.00892013 1.5736e-07 272.212 
-0.95 -0.33 -0.745979 2.58716 0.00912185 0.00872778 -7.24837e-05 0.00893729 1.57832e-07 271.92 
-0.93 -0.33 -1.16141 2.73572 0.00913292 0.00873633 -6.58385e-05 0.00894023 1.57829e-07 272.015 
-0.89 -0.33 -2.13467 2.6809 0.00915427 0.00872146 -5.78818e-05 0.00894331 1.57836e-07 272.096 
-0.83 -0.33 -2.84913 2.79778 0.00914687 0.00871217 -5.67975e-05 0.00894364 1.57877e-07 272.035 
-0.75 -0.31 -4.4515 2.84347 0.00916629 0.00875663 -4.82993e-05 0.0089749 1.58407e-07 272.073 
-0.75 -0.27 -4.54848 3.68179 0.00919068 0.0087587 -6.62289e-05 0.00898307 1.58684e-07 271.845 
-0.75 -0.25 -4.55212 3.80671 0.00917588 0.00875911 -7.06352e-05 0.00897075 1.58475e-07 271.83 
-0.75 -0.19 -4.47274 4.79089 0.00916706 0.00873728 -9.47493e-05 0.00896511 1.58458e-07 271.688 
-0.79 -0.33 -3.62629 2.30796 0.00915814 0.00873544 -5.289e-05 0.00895872 1.58292e-07 271.781 
-0.75 -0.33 -4.3218 2.54245 0.00917175 0.00876471 -3.69425e-05 0.00897811 1.58593e-07 271.85 
-0.81 -0.17 -3.63395 5.63877 0.00912811 0.00869328 -0.000112884 0.00892174 1.57739e-07 271.607 
-0.79 -0.17 -3.88072 5.75531 0.00914057 0.00873264 -0.000110982 0.00895215 1.58143e-07 271.836 
-0.75 -0.17 -4.51721 5.40281 0.00916345 0.00873824 -0.000104355 0.00896234 1.58243e-07 271.974 
-0.73 -0.31 -4.80793 2.93972 0.00918605 0.00877707 -4.78809e-05 0.00899204 1.58739e-07 272.022 
-0.73 -0.29 -4.75692 3.26133 0.00918379 0.0087712 -5.64906e-05 0.008991 1.58744e-07 271.982 
-0.73 -0.27 -4.95392 3.43193 0.00919996 0.00877636 -6.6952e-05 0.00899882 1.58895e-07 271.961 
-0.73 -0.25 -4.70974 3.80328 0.00918116 0.00876832 -6.6775e-05 0.00898215 1.58766e-07 271.678 
-0.73 -0.23 -4.90801 4.12491 0.00918792 0.00877069 -7.50172e-05 0.00898748 1.58872e-07 271.658 
-0.73 -0.21 -4.91002 4.371 0.009179 0.00876802 -9.4057e-05 0.00898334 1.58631e-07 271.945 
-0.73 -0.19 -4.95077 4.75595 0.00916737 0.00877457 -9.93997e-05 0.00897868 1.58637e-07 271.793 
-0.79 -0.05 -3.27817 7.6999 0.00906048 0.00871293 -0.000153163 0.00890047 1.57476e-07 271.412 
-0.87 -0.03 -2.19821 8.35728 0.00900553 0.00863108 -0.000177575 0.00884115 1.56435e-07 271.397 
-0.83 -0.05 -2.69985 7.97442 0.00903981 0.00867436 -0.00015327 0.0088792 1.57041e-07 271.513 
-0.91 -0.03 -1.69423 8.26419 0.00899365 0.00862748 -0.00018875 0.0088321 1.56225e-07 271.483 
-0.81 -0.05 -2.89581 7.70906 0.00905477 0.00869592 -0.000146164 0.00889319 1.57325e-07 271.45 
-0.89 -0.03 -1.8915 8.44711 0.00899822 0.00863226 -0.000178468 0.00883486 1.56356e-07 271.341 
-0.77 -0.05 -3.64181 7.26171 0.00907071 0.00872606 -0.000154334 0.00891346 1.57621e-07 271.558 
-0.85 -0.03 -2.53171 8.17025 0.00900959 0.00864755 -0.000176563 0.00885209 1.56616e-07 271.418 
-0.75 -0.05 -3.89829 7.07132 0.00907745 0.00875297 -0.000159998 0.00892399 1.57735e-07 271.682 
-0.83 -0.03 -2.7525 8.3274 0.00902481 0.00866699 -0.000162731 0.00886755 1.56944e-07 271.325 
-0.81 -0.03 -3.14944 7.97943 0.00903345 0.00869282 -0.000159043 0.00887912 1.571e-07 271.408 
-0.79 -0.03 -3.21971 8.06325 0.00904668 0.00871494 -0.00015797 0.0088947 1.57398e-07 271.371 
-0.77 -0.03 -3.606 7.51332 0.00905766 0.0087311 -0.000161934 0.00890457 1.57501e-07 271.495 
-0.95 -0.17 -0.756969 5.24121 0.00907891 0.00869171 -0.000143497 0.00889647 1.57336e-07 271.532 
-0.99 -0.15 -0.132193 4.94497 0.00903134 0.00870711 -0.000174271 0.00888919 1.57166e-07 271.603 
-0.89 -0.17 -2.00302 5.84724 0.00910331 0.00867366 -0.000122406 0.00890552 1.57273e-07 271.916 
-0.97 -0.15 -0.453723 5.52317 0.00905053 0.00869682 -0.000164831 0.00888921 1.57181e-07 271.578 
-0.95 -0.15 -0.894642 5.72658 0.00906281 0.00867581 -0.000153761 0.0088838 1.57115e-07 271.525 
-0.93 -0.15 -1.28868 5.96159 0.00907213 0.00866845 -0.000139487 0.00888703 1.57239e-07 271.411 
-0.83 -0.17 -3.10083 5.61826 0.00912678 0.00870565 -0.000107626 0.00892945 1.57761e-07 271.803 
-0.91 -0.15 -1.5383 6.18065 0.00909163 0.00867827 -0.000136629 0.00890239 1.57312e-07 271.754 
-0.99 -0.13 -0.201811 5.29416 0.00904599 0.00870682 -0.000186493 0.00889102 1.57237e-07 271.536 
-0.89 -0.15 -1.81306 6.24702 0.0090924 0.00866278 -0.000129094 0.00889432 1.57203e-07 271.695 
-0.97 -0.13 -0.487912 5.92154 0.00905305 0.00867904 -0.000172421 0.00888492 1.57202e-07 271.409 
-0.87 -0.15 -2.40891 6.12321 0.00909576 0.00868285 -0.000124454 0.00890917 1.57346e-07 271.901 
-0.95 -0.13 -0.91081 6.0968 0.00906246 0.00866402 -0.000164227 0.00887936 1.57118e-07 271.386 
-0.77 -0.17 -4.13111 5.35311 0.00915534 0.00872935 -0.000105133 0.00895876 1.5828e-07 271.801 
-0.85 -0.15 -2.7141 6.23624 0.00910524 0.00867777 -0.000116406 0.00890742 1.57506e-07 271.572 
-0.93 -0.13 -1.12753 6.21454 0.00907824 0.00866665 -0.000158444 0.00889145 1.57155e-07 271.69 
-0.83 -0.15 -3.06568 5.9636 0.00911974 0.00869956 -0.000118817 0.008924 1.5776e-07 271.639 
-0.91 -0.13 -1.64164 6.53845 0.00907865 0.00866075 -0.000148539 0.00889188 1.57228e-07 271.577 
-0.99 -0.11 -0.1195 5.57007 0.00904244 0.00869433 -0.000186145 0.00888429 1.57007e-07 271.728 
-0.81 -0.15 -3.41217 6.1333 0.00912696 0.00870615 -0.000118586 0.00893024 1.57809e-07 271.744 
-0.89 -0.13 -2.01712 6.62614 0.00908731 0.00866332 -0.000133877 0.00889224 1.57284e-07 271.491 
-0.97 -0.11 -0.497433 6.28234 0.0090372 0.00866707 -0.000180976 0.0088741 1.56929e-07 271.55 
-0.79 -0.15 -3.91239 5.90957 0.00912962 0.00872154 -0.000121934 0.00894373 1.58097e-07 271.659 
-0.87 -0.13 -2.37095 6.62985 0.00909713 0.00866861 -0.000131277 0.00890145 1.57428e-07 271.524 
-0.95 -0.11 -0.77193 6.40045 0.00904614 0.00866279 -0.000173574 0.00887278 1.57042e-07 271.316 
-0.77 -0.15 -4.17182 5.72906 0.00913557 0.00872643 -0.000113856 0.00894626 1.58261e-07 271.455 
-0.85 -0.13 -2.697 6.41286 0.00911413 0.00868237 -0.000126145 0.00891009 1.57531e-07 271.611 
-0.93 -0.11 -1.26285 6.71887 0.00905457 0.00865537 -0.000166791 0.00887262 1.5708e-07 271.244 
-0.75 -0.15 -4.46069 5.64931 0.00914551 0.00873981 -0.000110044 0.00895768 1.58343e-07 271.66 
-0.83 -0.13 -3.06624 6.44329 0.00912114 0.00869443 -0.000129152 0.00891935 1.57492e-07 271.96 
-0.91 -0.11 -1.53504 6.90769 0.0090598 0.00864902 -0.000155355 0.00887499 1.57061e-07 271.35 
-0.99 -0.09 -0.10946 5.8483 0.00900031 0.00868376 -0.000198339 0.00885729 1.5671e-07 271.415 
-0.81 -0.13 -3.57981 6.45445 0.00911818 0.00870597 -0.000121067 0.00892714 1.5792e-07 271.459 
-0.89 -0.11 -1.82073 6.99854 0.00907395 0.00865611 -0.000145191 0.00888371 1.57338e-07 271.138 
-0.97 -0.09 -0.407263 6.72198 0.00902447 0.00865976 -0.000188353 0.00886434 1.56824e-07 271.435 
-0.79 -0.13 -3.71675 6.38742 0.0091238 0.00871916 -0.000121996 0.00893631 1.57888e-07 271.793 
-0.87 -0.11 -2.23398 7.01773 0.00908519 0.00866612 -0.000144534 0.00889797 1.5742e-07 271.432 
-0.95 -0.09 -0.822818 6.78734 0.00903782 0.00865596 -0.000178969 0.00887135 1.56905e-07 271.509 
-0.77 -0.13 -4.10938 6.0007 0.00912393 0.00872007 -0.000119961 0.00893358 1.57976e-07 271.558 
-0.85 -0.11 -2.66735 6.82889 0.00908924 0.00867988 -0.000135169 0.00890046 1.57516e-07 271.343 
-0.93 -0.09 -1.08894 6.93016 0.00904181 0.00864759 -0.000174525 0.00886695 1.5712e-07 271.003 
-0.83 -0.11 -3.11771 6.98487 0.00908944 0.00868359 -0.000128834 0.00890525 1.5754e-07 271.447 
-0.91 -0.09 -1.35517 7.2384 0.00904266 0.00863565 -0.000159149 0.00886089 1.56932e-07 271.142 
-0.99 -0.07 -0.293636 6.24097 0.00900193 0.00867574 -0.000204221 0.00885753 1.56647e-07 271.532 
-0.81 -0.11 -3.42115 6.59029 0.0091036 0.0087082 -0.000127933 0.0089185 1.576e-07 271.747 
-0.89 -0.09 -1.85864 7.42556 0.00905049 0.00865254 -0.000160364 0.00887321 1.57144e-07 271.152 
-0.97 -0.07 -0.560685 6.92424 0.00899532 0.00864968 -0.000203393 0.00884522 1.56444e-07 271.507 
-0.79 -0.11 -3.63658 6.67952 0.00911205 0.00871572 -0.000128342 0.0089289 1.57951e-07 271.461 
-0.87 -0.09 -2.12474 7.35268 0.0090653 0.00865825 -0.00015305 0.00888453 1.57378e-07 271.094 
-0.95 -0.07 -0.739866 7.06438 0.00899769 0.00864722 -0.000187903 0.0088442 1.56474e-07 271.424 
-0.77 -0.11 -4.01165 6.26052 0.00912477 0.00871741 -0.000131325 0.00893351 1.57962e-07 271.581 
-0.85 -0.09 -2.48346 7.24816 0.00907294 0.00867045 -0.000144336 0.00888829 1.57335e-07 271.283 
-0.93 -0.07 -1.15404 7.3586 0.00900961 0.00863264 -0.000178558 0.00884679 1.56699e-07 271.113 
-0.75 -0.11 -4.45718 6.0481 0.00913844 0.00875006 -0.00012984 0.00895389 1.58292e-07 271.633 
-0.83 -0.09 -2.80547 7.23317 0.00908645 0.0086804 -0.000140723 0.00889986 1.57405e-07 271.516 
-0.91 -0.07 -1.55505 7.56829 0.00902917 0.0086328 -0.000173757 0.00885389 1.56715e-07 271.302 
-0.99 -0.05 -0.0482506 6.64042 0.00897961 0.0086657 -0.00021597 0.00883626 1.56342e-07 271.409 
-0.81 -0.09 -3.24111 7.06366 0.00909664 0.00871092 -0.000139878 0.00891607 1.57759e-07 271.401 
-0.89 -0.07 -1.85319 7.7299 0.00904357 0.0086508 -0.000173445 0.0088696 1.57005e-07 271.282 
-0.97 -0.05 -0.547172 7.12167 0.00899944 0.00864503 -0.000206688 0.00884437 1.56464e-07 271.445 
-0.79 -0.09 -3.65708 6.88028 0.00910018 0.00871671 -0.000133306 0.0089231 1.57785e-07 271.57 
-0.87 -0.07 -2.26596 7.77376 0.00904413 0.00864335 -0.000158309 0.00886337 1.56805e-07 271.437 
-0.95 -0.05 -0.781963 7.43778 0.00900701 0.00863621 -0.000197682 0.00884083 1.56376e-07 271.489 
-0.77 -0.09 -3.92144 6.75315 0.00909788 0.00871914 -0.000132624 0.00892593 1.57865e-07 271.518 
-0.85 -0.07 -2.54721 7.52435 0.00905084 0.00866233 -0.00015333 0.00887778 1.56993e-07 271.552 
-0.93 -0.05 -1.13162 7.75499 0.00900787 0.00862377 -0.000182555 0.00883931 1.56451e-07 271.312 
-0.75 -0.09 -4.25104 6.49644 0.00909421 0.00874524 -0.000140887 0.00893488 1.58e-07 271.557 
-0.83 -0.07 -2.89909 7.70861 0.00905819 0.00868405 -0.000145296 0.00888386 1.57059e-07 271.624 
-0.91 -0.05 -1.43706 7.97205 0.00901005 0.00863225 -0.000180655 0.00884229 1.56512e-07 271.299 
-0.99 -0.03 -0.186908 6.94086 0.00895467 0.00865677 -0.000228962 0.00881964 1.56008e-07 271.478 
-0.81 -0.07 -3.23639 7.5774 0.00905581 0.00869833 -0.00014844 0.00889398 1.57321e-07 271.48 
-0.89 -0.05 -1.8153 8.07493 0.00901031 0.00863892 -0.000175828 0.00884671 1.56631e-07 271.229 
-0.97 -0.03 -0.447865 7.53601 0.00896135 0.00862894 -0.000212221 0.00881812 1.5618e-07 271.132 