ITEM: TIMESTEP
925500
ITEM: NUMBER OF CELLS
5000
ITEM: BOX BOUNDS ss ss pp
-1 1
-0.5 0.5
-0.5 0.5
ITEM: CELLS xc yc f_U[*] f_V[*] f_Tau[1] f_Tau[2] f_Tau[3] f_Press[*] f_Mrho[*] f_Ttra[*] 
-0.99 -0.49 -0.186302 0.320941 0.00898582 0.00875179 -3.40524e-05 0.00887878 1.56603e-07 272.259 
-0.97 -0.49 -0.636388 0.102538 0.00898594 0.00875969 -3.36077e-05 0.0088811 1.56663e-07 272.227 
-0.95 -0.49 -0.754949 0.0218872 0.00898853 0.00875024 -3.4537e-05 0.00887741 1.56686e-07 272.074 
-0.93 -0.49 -0.975077 0.177614 0.00899693 0.00875616 -2.60878e-05 0.00888465 1.56823e-07 272.058 
-0.91 -0.49 -1.29938 0.0445667 0.00900709 0.00873267 -2.02221e-05 0.0088708 1.56762e-07 271.739 
-0.99 -0.47 -0.190192 0.617491 0.0090151 0.008777 -2.05368e-05 0.00890578 1.57063e-07 272.287 
-0.89 -0.49 -1.6307 0.239657 0.00902658 0.00874429 -2.5202e-05 0.00888822 1.56838e-07 272.141 
-0.97 -0.47 -0.337487 0.466341 0.00901239 0.00875386 -3.97594e-05 0.00889555 1.56787e-07 272.454 
-0.87 -0.49 -1.82442 0.00430522 0.00904392 0.00877052 -1.38778e-05 0.008905 1.57129e-07 272.15 
-0.95 -0.47 -0.741631 0.370212 0.00902827 0.00875582 -3.49552e-05 0.00890165 1.56906e-07 272.434 
-0.85 -0.49 -2.02353 0.164593 0.00904684 0.0087492 -6.39365e-06 0.00889446 1.56773e-07 272.446 
-0.93 -0.47 -1.02726 0.276407 0.00902982 0.00874565 -3.62956e-05 0.00889016 1.56817e-07 272.238 
-0.83 -0.49 -2.04637 -0.0937369 0.0090544 0.008765 1.8164e-06 0.00891418 1.5715e-07 272.393 
-0.91 -0.47 -1.34097 0.703752 0.00903717 0.00873846 -3.20689e-05 0.00889195 1.56906e-07 272.138 
-0.99 -0.45 -0.155076 0.915762 0.00905711 0.008784 -3.10888e-05 0.00892884 1.57401e-07 272.406 
-0.81 -0.49 -2.19912 0.252549 0.00905756 0.00877008 9.31406e-06 0.00892242 1.57406e-07 272.203 
-0.89 -0.47 -1.76751 0.382324 0.00903897 0.0087416 -3.54656e-05 0.00888983 1.56896e-07 272.089 
-0.97 -0.45 -0.434755 0.706862 0.00906324 0.0087673 -4.02935e-05 0.00892296 1.57225e-07 272.532 
-0.79 -0.49 -2.4818 0.0587085 0.00906266 0.00877205 1.78058e-05 0.00892706 1.574e-07 272.354 
-0.87 -0.47 -1.99194 0.18261 0.00904164 0.00874933 -2.41537e-05 0.00890615 1.56925e-07 272.539 
-0.95 -0.45 -0.720386 0.777194 0.00905382 0.00874824 -4.28553e-05 0.00890603 1.56921e-07 272.542 
-0.77 -0.49 -2.49415 0.00107087 0.00907071 0.00879787 2.95513e-05 0.00894675 1.57668e-07 272.491 
-0.85 -0.47 -2.11898 0.275979 0.00905329 0.00875169 -1.34543e-05 0.0089069 1.56985e-07 272.458 
-0.93 -0.45 -1.17185 0.505994 0.00906551 0.00873975 -4.37974e-05 0.0089082 1.5717e-07 272.176 
-0.83 -0.47 -2.4112 0.157457 0.00906114 0.00875258 -9.0975e-06 0.00891708 1.57135e-07 272.509 
-0.91 -0.45 -1.3488 0.928118 0.00906789 0.00874511 -3.60551e-05 0.00890693 1.57175e-07 272.128 
-0.99 -0.43 -0.200571 1.23285 0.00908436 0.00878463 -3.89751e-05 0.00894365 1.57851e-07 272.081 
-0.81 -0.47 -2.58098 0.485312 0.00907344 0.00876365 -1.25961e-06 0.00893241 1.57483e-07 272.373 
-0.89 -0.45 -1.70155 0.743443 0.00907708 0.00873171 -3.73708e-05 0.00889984 1.57112e-07 272.022 
-0.97 -0.43 -0.49025 0.930169 0.00908784 0.00877293 -3.55641e-05 0.00893995 1.57582e-07 272.433 
-0.79 -0.47 -2.9102 0.333804 0.00908579 0.00875902 1.09468e-05 0.00893965 1.57722e-07 272.182 
-0.87 -0.45 -2.0329 0.613665 0.00908038 0.00874074 -2.41675e-05 0.00891099 1.57058e-07 272.455 
-0.95 -0.43 -0.661337 0.915422 0.00908901 0.00875009 -4.43611e-05 0.00892539 1.57467e-07 272.187 
-0.77 -0.47 -3.16243 0.0813678 0.00910086 0.00879404 1.4695e-05 0.00895541 1.58004e-07 272.175 
-0.85 -0.45 -2.41269 0.384158 0.0090876 0.00874106 -2.03679e-05 0.00891959 1.57247e-07 272.391 
-0.93 -0.43 -0.879428 1.04969 0.00909021 0.00874343 -4.26763e-05 0.00892134 1.57387e-07 272.202 
-0.75 -0.47 -3.2781 0.348724 0.00910565 0.00881062 1.88262e-05 0.00896404 1.57828e-07 272.74 
-0.83 -0.45 -2.65783 0.431337 0.00909696 0.00875645 -1.67891e-05 0.00893465 1.57603e-07 272.235 
-0.91 -0.43 -1.49216 1.06212 0.00908614 0.00873846 -4.40162e-05 0.00891026 1.57187e-07 272.211 
-0.99 -0.41 -0.209691 1.63166 0.00908469 0.00877503 -4.83631e-05 0.00893648 1.57758e-07 272.022 
-0.81 -0.45 -2.89183 0.755477 0.00909749 0.00874488 -1.20965e-05 0.00893271 1.57535e-07 272.294 
-0.89 -0.43 -1.50706 1.17234 0.00907924 0.00872094 -3.76587e-05 0.00890325 1.57162e-07 272.039 
-0.97 -0.41 -0.38027 1.0563 0.00910168 0.00877499 -4.80569e-05 0.00894296 1.57601e-07 272.492 
-0.79 -0.45 -3.05878 0.58278 0.00910529 0.00875375 2.01764e-07 0.0089364 1.5772e-07 272.085 
-0.87 -0.43 -1.90321 0.832765 0.00908659 0.00873788 -3.63208e-05 0.00892084 1.57361e-07 272.232 
-0.95 -0.41 -0.563311 1.283 0.009108 0.00875912 -4.12281e-05 0.00894249 1.57673e-07 272.353 
-0.77 -0.45 -3.46335 0.42995 0.00911404 0.00878677 6.90873e-06 0.00895542 1.57866e-07 272.413 
-0.85 -0.43 -2.08359 0.788792 0.0090992 0.00873537 -2.72371e-05 0.0089236 1.57453e-07 272.157 
-0.93 -0.41 -1.15908 1.56356 0.00909712 0.00872779 -4.20169e-05 0.00891995 1.57426e-07 272.092 
-0.75 -0.45 -3.70564 0.517397 0.00911839 0.00880286 1.56819e-05 0.00896415 1.58147e-07 272.194 
-0.83 -0.43 -2.4963 0.813119 0.00910284 0.0087497 -1.7475e-05 0.00893299 1.57531e-07 272.308 
-0.91 -0.41 -1.30805 1.28743 0.00910116 0.00873744 -3.42309e-05 0.00892739 1.57665e-07 271.906 
-0.99 -0.39 -0.120551 1.86983 0.00908533 0.00878087 -5.39475e-05 0.00894514 1.57934e-07 271.983 
-0.81 -0.43 -3.06786 1.00008 0.0091104 0.00874073 -1.50206e-05 0.00893579 1.57654e-07 272.182 
-0.89 -0.41 -1.72026 1.39099 0.00910041 0.00873329 -3.97664e-05 0.00892383 1.57338e-07 272.363 
-0.97 -0.39 -0.580294 1.32482 0.0090874 0.00876875 -5.11914e-05 0.00893486 1.57695e-07 272.082 
-0.79 -0.43 -3.24608 0.826093 0.00911627 0.00874492 -8.79293e-06 0.00894066 1.57859e-07 271.976 
-0.87 -0.41 -2.05356 1.20851 0.00909736 0.00872582 -3.84396e-05 0.00892418 1.57304e-07 272.432 
-0.95 -0.39 -0.964317 1.54897 0.00908297 0.00874395 -4.55857e-05 0.00891571 1.5727e-07 272.232 
-0.77 -0.43 -3.52544 0.765178 0.00912995 0.00878267 5.09685e-07 0.0089675 1.58239e-07 272.138 
-0.85 -0.41 -2.59233 1.0814 0.0090981 0.00873647 -3.77521e-05 0.00893059 1.57629e-07 272.066 
-0.93 -0.39 -0.652947 1.80657 0.0090968 0.00873246 -3.51813e-05 0.008923 1.5752e-07 272.023 
-0.83 -0.41 -2.76704 1.15938 0.0091132 0.00873711 -3.12853e-05 0.00893184 1.57633e-07 272.097 
-0.91 -0.39 -1.19031 1.85376 0.00909808 0.00873737 -4.41509e-05 0.00892849 1.57481e-07 272.258 
-0.99 -0.37 0.149721 2.04413 0.00908391 0.00878924 -5.84286e-05 0.00894942 1.58097e-07 271.833 
-0.81 -0.41 -2.86836 1.33703 0.00912562 0.00873047 -1.7351e-05 0.00893507 1.57748e-07 271.998 
-0.89 -0.39 -1.48015 1.52655 0.00910949 0.00873646 -4.6524e-05 0.00893808 1.57617e-07 272.315 
-0.97 -0.37 -0.217089 1.99967 0.00909125 0.00875428 -5.75391e-05 0.00893612 1.57642e-07 272.212 
-0.79 -0.41 -3.28233 1.01461 0.0091396 0.00874892 -1.61876e-05 0.00895574 1.58104e-07 272.012 
-0.87 -0.39 -1.76502 1.58404 0.00912364 0.00871978 -4.22769e-05 0.00893291 1.57561e-07 272.254 
-0.95 -0.37 -0.719603 1.67903 0.00910766 0.00874119 -5.14535e-05 0.00893167 1.57672e-07 272.025 
-0.77 -0.41 -3.69451 1.25685 0.00914278 0.00877311 -2.00467e-05 0.00897206 1.58371e-07 272.048 
-0.85 -0.39 -2.12835 1.54568 0.00913358 0.00874006 -4.04091e-05 0.00894457 1.58015e-07 271.827 
-0.93 -0.37 -1.28412 1.90772 0.00911667 0.0087332 -5.03539e-05 0.00893605 1.5767e-07 272.161 
-0.75 -0.41 -3.92112 1.06716 0.00916141 0.00879177 -8.79399e-06 0.00898816 1.58582e-07 272.174 
-0.83 -0.39 -2.62808 1.42564 0.00912918 0.00872675 -3.87025e-05 0.00893506 1.57769e-07 271.961 
-0.91 -0.37 -1.27464 2.08143 0.00913856 0.00874004 -5.66832e-05 0.00894913 1.57735e-07 272.448 
-0.99 -0.35 -0.241535 2.08204 0.00910157 0.00878012 -7.62123e-05 0.00895213 1.58148e-07 271.827 
-0.81 -0.39 -2.8868 1.40757 0.00913186 0.00872547 -3.44045e-05 0.00893705 1.57703e-07 272.136 
-0.89 -0.37 -1.63418 1.97808 0.0091425 0.00873292 -4.85767e-05 0.00894867 1.57852e-07 272.231 
-0.97 -0.35 -0.408727 2.43519 0.00911055 0.00874959 -6.45129e-05 0.00894103 1.57859e-07 271.988 
-0.79 -0.39 -3.19893 1.56392 0.00914204 0.00874057 -2.63479e-05 0.00895512 1.58079e-07 272.036 
-0.87 -0.37 -2.17084 2.04313 0.00913732 0.00871707 -5.11531e-05 0.00893721 1.5759e-07 272.335 
-0.95 -0.35 -0.687836 2.04899 0.00912186 0.00873415 -6.16461e-05 0.00893583 1.57772e-07 271.979 
-0.77 -0.39 -3.70123 1.60978 0.0091523 0.00877836 -1.92508e-05 0.00898068 1.58443e-07 272.187 
-0.85 -0.37 -2.53318 1.82057 0.00914241 0.00873708 -4.90279e-05 0.00894493 1.57885e-07 272.062 
-0.93 -0.35 -1.11012 2.3494 0.00913239 0.0087386 -6.6643e-05 0.00894676 1.57845e-07 272.186 
-0.83 -0.37 -2.81333 1.8073 0.00914813 0.00871788 -3.90662e-05 0.0089392 1.578e-07 272.033 
-0.91 -0.35 -1.51692 2.35409 0.00912221 0.00873753 -5.43669e-05 0.00893247 1.57611e-07 272.155 
-0.81 -0.37 -3.25129 1.62914 0.00915654 0.00872203 -3.36777e-05 0.00895006 1.57893e-07 272.203 
-0.89 -0.35 -1.84503 2.4217 0.00912794 0.00872417 -5.57157e-05 0.00893154 1.57589e-07 272.165 
-0.79 -0.37 -3.65631 2.0481 0.00915587 0.00873896 -3.11161e-05 0.00896346 1.58313e-07 271.887 
-0.87 -0.35 -2.20631 2.26972 0.0091448 0.00872224 -5.19995e-05 0.00894126 1.57746e-07 272.189 
-0.77 -0.37 -3.8943 2.0769 0.0091648 0.00877497 -2.71311e-05 0.00897857 1.58442e-07 272.124 
-0.85 -0.35 -2.63487 2.34127 0.00915077 0.00872032 -5.01498e-05 0.00893773 1.57903e-07 271.812 
-0.83 -0.35 -3.06731 2.14171 0.00914784 0.00871863 -4.60002e-05 0.00893637 1.57811e-07 271.928 
-0.81 -0.35 -3.4635 2.15792 0.00915266 0.0087215 -4.74367e-05 0.00894964 1.58002e-07 272.003 
-0.79 -0.35 -3.72092 2.3026 0.00917378 0.00873441 -4.0143e-05 0.00896461 1.58331e-07 271.891 
-0.77 -0.35 -3.93854 2.35141 0.00918446 0.00876428 -3.32205e-05 0.00898284 1.58432e-07 272.27 
-0.75 -0.35 -4.16011 2.27282 0.00918908 0.00878146 -2.45691e-05 0.00899611 1.58704e-07 272.206 
-0.75 -0.49 -2.64553 0.163649 0.00908535 0.00880759 2.56452e-05 0.00894877 1.57793e-07 272.336 
-0.75 -0.43 -3.89291 0.75603 0.00913996 0.0087973 -7.77785e-07 0.00898157 1.58395e-07 272.296 
-0.75 -0.39 -4.50266 1.50932 0.00915492 0.0087805 -2.16043e-05 0.00898596 1.58545e-07 272.171 
-0.75 -0.37 -4.07755 2.00577 0.00916309 0.00877924 -2.09788e-05 0.00897912 1.58367e-07 272.269 
-0.77 -0.33 -3.89159 2.6384 0.00915658 0.00875155 -4.47253e-05 0.00895679 1.5825e-07 271.793 
-0.73 -0.49 -2.94721 0.193081 0.00908782 0.00882084 2.52498e-05 0.00896354 1.58065e-07 272.317 
-0.73 -0.47 -3.31189 0.168767 0.00910927 0.00881132 2.59799e-05 0.00897306 1.58138e-07 272.48 
-0.73 -0.45 -3.85156 0.328026 0.00912734 0.00880853 1.35276e-05 0.00897748 1.58336e-07 272.273 
-0.73 -0.43 -4.38915 0.85672 0.00915777 0.0088071 4.77367e-06 0.00899241 1.5856e-07 272.342 
-0.73 -0.41 -4.34488 1.10804 0.00916356 0.00880398 -6.1472e-06 0.00899634 1.58679e-07 272.256 
-0.73 -0.39 -4.64245 1.46766 0.00916621 0.00879894 -7.51213e-06 0.00899306 1.58612e-07 272.272 
-0.73 -0.37 -4.50248 1.68685 0.00916323 0.00877847 -2.38205e-05 0.00898173 1.5844e-07 272.223 
-0.73 -0.35 -4.50797 2.00909 0.00918574 0.00877865 -1.89814e-05 0.00899154 1.58628e-07 272.197 
-0.81 -0.29 -3.29886 3.32046 0.00915449 0.00871602 -6.44e-05 0.00894418 1.57998e-07 271.843 
-0.89 -0.27 -1.76573 3.88633 0.00912038 0.00869898 -8.70824e-05 0.00892456 1.57492e-07 272.119 
-0.97 -0.25 -0.591251 3.71711 0.00909592 0.00872443 -0.00010772 0.00891932 1.57489e-07 271.965 
-0.83 -0.29 -3.00068 3.36537 0.00914534 0.00871886 -7.16825e-05 0.00894523 1.5779e-07 272.234 
-0.91 -0.27 -1.35905 3.82122 0.00911964 0.00870308 -8.96513e-05 0.00892771 1.57634e-07 271.97 
-0.99 -0.25 -0.253177 3.78688 0.00908908 0.00874528 -0.000114657 0.00892942 1.57781e-07 271.768 
-0.79 -0.29 -3.65833 3.23886 0.00917032 0.00872101 -6.04494e-05 0.00895205 1.58077e-07 271.947 
-0.87 -0.27 -2.32929 4.03322 0.00912299 0.00870549 -7.52878e-05 0.00893381 1.57721e-07 272.004 
-0.95 -0.25 -0.753379 3.84636 0.00910819 0.00872775 -0.000106801 0.00892851 1.57668e-07 271.935 
-0.77 -0.29 -4.05921 3.25389 0.0091874 0.00874619 -4.97081e-05 0.0089754 1.58578e-07 271.795 
-0.85 -0.27 -2.63907 3.67983 0.00913878 0.00871278 -7.37974e-05 0.00893494 1.57748e-07 271.993 
-0.93 -0.25 -1.13647 4.02477 0.00910176 0.0087051 -0.00010726 0.00891591 1.57445e-07 271.937 
-0.75 -0.29 -4.49976 3.12842 0.00918557 0.00876421 -5.31644e-05 0.00898648 1.5865e-07 272.007 
-0.83 -0.27 -3.01582 3.65835 0.00915042 0.00872252 -7.18457e-05 0.00895024 1.58067e-07 271.909 
-0.91 -0.25 -1.5456 4.19995 0.00911395 0.00869415 -9.85673e-05 0.00891536 1.57473e-07 271.87 
-0.99 -0.23 0.0337045 4.0803 0.00906847 0.00873758 -0.000127535 0.00891782 1.57504e-07 271.892 
-0.81 -0.27 -3.59308 3.70817 0.00915747 0.00871345 -8.18752e-05 0.00894718 1.58037e-07 271.868 
-0.89 -0.25 -2.1036 4.33931 0.00912687 0.00869139 -8.70476e-05 0.00892745 1.57512e-07 272.172 
-0.97 -0.23 -0.25096 3.94407 0.0090845 0.00873089 -0.000121383 0.00892242 1.57665e-07 271.755 
-0.79 -0.27 -4.09948 3.65599 0.00916754 0.00870873 -7.2935e-05 0.00894356 1.58116e-07 271.621 
-0.87 -0.25 -2.27267 4.30713 0.00914376 0.00870219 -8.50004e-05 0.00894285 1.57966e-07 271.859 
-0.95 -0.23 -0.774907 4.17983 0.00909175 0.00871236 -0.0001169 0.00891551 1.57412e-07 271.98 
-0.77 -0.27 -4.30589 3.64695 0.00917256 0.00873983 -6.12323e-05 0.00897029 1.58446e-07 271.867 
-0.85 -0.25 -2.57063 4.0972 0.00915377 0.00871377 -8.91108e-05 0.00894133 1.57854e-07 272.005 
-0.93 -0.23 -1.04662 4.38075 0.00910951 0.00870796 -0.00011058 0.00892171 1.57477e-07 272.058 
-0.83 -0.25 -3.05536 4.03388 0.00915695 0.00871312 -8.6277e-05 0.00893816 1.58167e-07 271.37 
-0.91 -0.23 -1.39346 4.66721 0.00911342 0.00868283 -0.000105115 0.00891851 1.57449e-07 272.01 
-0.99 -0.21 -0.0011716 4.11008 0.00909397 0.00873655 -0.000133108 0.00893008 1.57824e-07 271.715 
-0.81 -0.25 -3.23332 4.23078 0.0091579 0.00872464 -7.84523e-05 0.0089507 1.58328e-07 271.475 
-0.89 -0.23 -1.88167 4.85413 0.00912102 0.0086816 -0.000100665 0.00891654 1.57467e-07 271.917 
-0.97 -0.21 -0.140702 4.29649 0.00910125 0.00870896 -0.000128251 0.00891832 1.57657e-07 271.644 
-0.79 -0.25 -3.78811 4.21781 0.00914928 0.00869801 -7.88139e-05 0.00893373 1.57997e-07 271.527 
-0.87 -0.23 -2.35787 4.54961 0.0091349 0.00870468 -0.000101487 0.00893003 1.57758e-07 271.827 
-0.95 -0.21 -0.451346 4.5617 0.00910911 0.00871823 -0.000123576 0.00892738 1.57504e-07 272.184 
-0.77 -0.25 -4.33268 3.80555 0.00916138 0.00873449 -8.12036e-05 0.0089546 1.58199e-07 271.815 
-0.85 -0.23 -2.7454 4.61465 0.00913944 0.00870963 -8.94738e-05 0.00892998 1.57767e-07 271.81 
-0.93 -0.21 -1.14776 4.80821 0.00911009 0.00869744 -0.000121247 0.0089156 1.57567e-07 271.716 
-0.83 -0.23 -3.10588 4.3611 0.00913251 0.00870586 -8.10353e-05 0.00892649 1.57833e-07 271.589 
-0.91 -0.21 -1.45497 4.92254 0.00911654 0.00867728 -0.000112127 0.00891578 1.57552e-07 271.747 
-0.99 -0.19 -0.198597 4.25173 0.00907768 0.00872723 -0.000146661 0.00891861 1.57586e-07 271.775 
-0.81 -0.23 -3.50285 4.36215 0.00914435 0.0087156 -8.71e-05 0.00894344 1.58039e-07 271.751 
-0.89 -0.21 -1.69507 5.41213 0.00913193 0.00868877 -0.000111593 0.00893285 1.57786e-07 271.864 
-0.97 -0.19 -0.646194 4.76021 0.00908983 0.00870429 -0.000141086 0.00890353 1.57547e-07 271.382 
-0.79 -0.23 -3.58504 4.72839 0.00916487 0.00871023 -8.3163e-05 0.00894928 1.58192e-07 271.665 
-0.87 -0.21 -2.14762 4.99647 0.0091333 0.00868405 -0.000109565 0.00892352 1.57844e-07 271.48 
-0.95 -0.19 -0.929298 4.89344 0.009103 0.0087169 -0.00013061 0.00891585 1.57524e-07 271.798 
-0.77 -0.23 -3.96292 4.30558 0.00916677 0.00873368 -9.02154e-05 0.00896354 1.58368e-07 271.796 
-0.85 -0.21 -2.75497 5.04608 0.00914211 0.00870165 -9.08992e-05 0.00893491 1.57801e-07 271.9 
-0.93 -0.19 -0.949353 5.27376 0.00911294 0.00869035 -0.000122727 0.00891911 1.57687e-07 271.616 
-0.75 -0.23 -4.41636 3.93322 0.00917173 0.00874551 -8.90113e-05 0.00897233 1.58379e-07 272.044 
-0.83 -0.21 -3.22441 4.67371 0.00916074 0.00871365 -9.32548e-05 0.00894692 1.5794e-07 272.027 
-0.91 -0.19 -1.50084 5.28652 0.0091145 0.00867043 -0.000122969 0.00890619 1.57425e-07 271.675 
-0.81 -0.21 -3.47775 4.68072 0.00915626 0.00871181 -8.5179e-05 0.00895183 1.58275e-07 271.599 
-0.89 -0.19 -1.90358 5.70004 0.00911954 0.00868288 -0.000113499 0.00891516 1.57505e-07 271.81 
-0.79 -0.21 -3.78754 4.92818 0.00914701 0.00870928 -9.39449e-05 0.00894606 1.58161e-07 271.62 
-0.87 -0.19 -2.28376 5.42142 0.00912096 0.00868162 -0.000104429 0.0089161 1.57653e-07 271.584 
-0.77 -0.21 -4.16289 4.83017 0.00916158 0.00873603 -9.34335e-05 0.0089583 1.58318e-07 271.723 
-0.85 -0.19 -2.47628 5.45565 0.00912828 0.0086894 -0.000111269 0.00892436 1.57797e-07 271.586 
-0.75 -0.21 -4.67816 4.39911 0.00916715 0.00874198 -9.66662e-05 0.00896915 1.5841e-07 271.894 
-0.83 -0.19 -2.81807 5.1339 0.00912518 0.00870886 -0.000101314 0.00893217 1.578e-07 271.82 
-0.81 -0.19 -3.28835 5.11419 0.009146 0.00870014 -9.75657e-05 0.00893642 1.58046e-07 271.525 
-0.79 -0.19 -3.85666 5.13399 0.00916517 0.00872869 -9.34293e-05 0.00896475 1.58407e-07 271.766 
-0.77 -0.19 -4.0525 5.28975 0.0091681 0.00873739 -0.000105882 0.00896486 1.58473e-07 271.656 
-0.99 -0.33 -0.137179 2.4293 0.00909686 0.00877099 -8.25604e-05 0.00894736 1.5793e-07 272.057 
-0.97 -0.33 -0.409964 2.50013 0.00911368 0.00874975 -8.27238e-05 0.00894488 1.57951e-07 271.946 
-0.91 -0.33 -1.50397 2.84316 0.00915247 0.00873965 -6.26926e-05 0.00894466 1.5783e-07 272.148 
-0.99 -0.31 -0.150713 2.81648 0.00908627 0.00876078 -9.30468e-05 0.00893516 1.57764e-07 271.973 
-0.97 -0.31 -0.346772 2.63256 0.00909703 0.0087483 -8.68449e-05 0.00893379 1.57879e-07 271.732 
-0.87 -0.33 -2.17726 2.68481 0.00914388 0.00872547 -6.26812e-05 0.00894202 1.57866e-07 272.005 
-0.95 -0.31 -0.910751 3.09668 0.00910148 0.00872144 -8.46086e-05 0.00892144 1.57501e-07 272.009 
-0.85 -0.33 -2.27379 2.53975 0.0091424 0.00871131 -5.39863e-05 0.00893962 1.57707e-07 272.207 
-0.93 -0.31 -1.24781 3.12255 0.00912084 0.0087298 -8.60976e-05 0.00893654 1.57713e-07 272.102 
-0.91 -0.31 -1.51205 3.00493 0.00913704 0.00872198 -7.26602e-05 0.00894186 1.57685e-07 272.313 
-0.99 -0.29 -0.138333 3.04386 0.00908118 0.00876311 -9.9463e-05 0.00893696 1.57793e-07 271.976 
-0.81 -0.33 -3.24442 2.51403 0.00915969 0.00872189 -4.78436e-05 0.00895654 1.58038e-07 272.15 
-0.89 -0.31 -1.72837 3.08974 0.00914537 0.0087163 -5.83203e-05 0.0089431 1.57829e-07 272.103 
-0.97 -0.29 -0.52772 3.07207 0.00908611 0.00873053 -9.61384e-05 0.00891979 1.57482e-07 271.99 
-0.87 -0.31 -2.2025 2.97951 0.00915013 0.00872592 -6.3016e-05 0.00894324 1.57952e-07 271.894 
-0.95 -0.29 -0.678455 3.4516 0.00910002 0.00872271 -9.60542e-05 0.00892529 1.57474e-07 272.172 
-0.85 -0.31 -2.72844 2.82427 0.00914896 0.00870202 -6.00898e-05 0.00893639 1.5782e-07 271.914 
-0.93 -0.29 -1.01157 3.20591 0.00910595 0.0087297 -9.53387e-05 0.00892513 1.57469e-07 272.177 
-0.83 -0.31 -2.85375 3.13006 0.00915217 0.00872273 -5.2226e-05 0.00895546 1.58035e-07 272.122 
-0.91 -0.29 -1.20961 3.52117 0.00909765 0.00870157 -8.15157e-05 0.00891128 1.57342e-07 271.973 
-0.99 -0.27 -0.11205 3.33813 0.0090865 0.00875617 -0.000112218 0.00894051 1.57953e-07 271.81 
-0.81 -0.31 -3.31879 2.89996 0.00915699 0.00871807 -5.50351e-05 0.00895554 1.58048e-07 272.103 
-0.89 -0.29 -1.583 3.43416 0.00911448 0.00871079 -7.63915e-05 0.00892577 1.57608e-07 271.956 
-0.97 -0.27 -0.478514 3.42869 0.00909073 0.00872824 -0.000105126 0.00892491 1.5751e-07 272.098 
-0.79 -0.31 -3.68397 2.82329 0.00916299 0.00872837 -5.01308e-05 0.00895518 1.58163e-07 271.894 
-0.87 -0.29 -2.09502 3.5289 0.00912748 0.00871813 -5.80686e-05 0.00893338 1.57774e-07 271.901 
-0.95 -0.27 -0.730748 3.62157 0.00909474 0.00872349 -0.000102809 0.0089239 1.57481e-07 272.117 
-0.77 -0.31 -4.02795 2.97631 0.00916597 0.00874364 -4.92762e-05 0.00895608 1.58316e-07 271.658 
-0.85 -0.29 -2.64924 3.28296 0.0091339 0.0087036 -6.1612e-05 0.00893118 1.57828e-07 271.74 
-0.93 -0.27 -0.930471 3.59963 0.00910291 0.00871392 -9.52924e-05 0.00891544 1.57247e-07 272.264 
-0.95 -0.33 -0.599913 2.52047 0.00912295 0.00872571 -7.37793e-05 0.00893406 1.57746e-07 271.97 
-0.93 -0.33 -1.04814 2.71851 0.00913437 0.00873137 -6.24823e-05 0.0089374 1.5772e-07 272.117 
-0.89 -0.33 -2.05323 2.72438 0.00914848 0.00871521 -5.72637e-05 0.0089343 1.57659e-07 272.127 
-0.83 -0.33 -2.84208 2.72434 0.00915068 0.00871757 -5.16304e-05 0.00895173 1.57958e-07 272.141 
-0.75 -0.31 -4.2424 2.76197 0.00917486 0.00876234 -4.57259e-05 0.00898412 1.58549e-07 272.108 
-0.75 -0.27 -4.48059 3.58027 0.00919778 0.00876249 -6.07039e-05 0.00898977 1.58742e-07 271.948 
-0.75 -0.25 -4.64612 3.7325 0.00917461 0.00875613 -7.10364e-05 0.00897065 1.58452e-07 271.866 
-0.75 -0.19 -4.4234 4.91328 0.00916275 0.00873387 -9.99089e-05 0.00896357 1.58553e-07 271.479 
-0.79 -0.33 -3.63812 2.47188 0.00915227 0.00873272 -5.01743e-05 0.00895536 1.58163e-07 271.9 
-0.75 -0.33 -4.27675 2.49127 0.00916867 0.00876811 -3.02146e-05 0.00897766 1.58503e-07 271.991 
-0.81 -0.17 -3.56363 5.72137 0.0091304 0.0086917 -0.000109269 0.00891996 1.57712e-07 271.599 
-0.79 -0.17 -3.93421 5.65707 0.00913805 0.00873543 -0.00010893 0.00895396 1.58183e-07 271.822 
-0.75 -0.17 -4.41184 5.47788 0.0091662 0.00874018 -0.000106853 0.0089645 1.58413e-07 271.748 
-0.73 -0.31 -4.79531 2.85273 0.00919009 0.00877826 -4.77772e-05 0.00899704 1.58727e-07 272.194 
-0.73 -0.29 -4.64512 3.21075 0.00918526 0.00877312 -5.11131e-05 0.00898993 1.58814e-07 271.83 
-0.73 -0.27 -5.00769 3.35293 0.00920693 0.00878442 -6.48454e-05 0.00900728 1.59015e-07 272.01 
-0.73 -0.25 -4.66245 3.75248 0.00918657 0.00877728 -6.5354e-05 0.00899105 1.58884e-07 271.744 
-0.73 -0.23 -4.83431 4.04556 0.00918075 0.00877282 -7.55964e-05 0.00898761 1.58738e-07 271.891 
-0.73 -0.21 -5.01663 4.37229 0.00918437 0.00876975 -9.63255e-05 0.00898265 1.58607e-07 271.964 
-0.73 -0.19 -4.84846 4.79101 0.00916712 0.00877771 -0.000102846 0.00897844 1.58663e-07 271.742 
-0.79 -0.05 -3.21883 7.60751 0.00905578 0.00871277 -0.000152816 0.00889981 1.57496e-07 271.357 
-0.87 -0.03 -2.14102 8.34714 0.00899871 0.00862587 -0.000180853 0.00883116 1.56389e-07 271.169 
-0.83 -0.05 -2.72718 8.00724 0.00903158 0.00867436 -0.000153248 0.00887325 1.56977e-07 271.443 
-0.91 -0.03 -1.68374 8.15362 0.0089937 0.00862131 -0.000188913 0.00882982 1.56162e-07 271.523 
-0.81 -0.05 -2.92129 7.77609 0.00904651 0.00869802 -0.000138463 0.00889045 1.57365e-07 271.297 
-0.89 -0.03 -1.7749 8.38279 0.00899138 0.008626 -0.000181147 0.00882859 1.5626e-07 271.314 
-0.77 -0.05 -3.57161 7.32974 0.00906718 0.00873969 -0.000153178 0.00892289 1.57708e-07 271.695 
-0.85 -0.03 -2.51031 8.10688 0.0090032 0.00864902 -0.000175361 0.00885125 1.56637e-07 271.357 
-0.75 -0.05 -3.8508 7.17226 0.00907692 0.00876143 -0.00016342 0.00892694 1.57769e-07 271.714 
-0.83 -0.03 -2.73252 8.37445 0.00902088 0.00866482 -0.000166886 0.00886516 1.56974e-07 271.199 
-0.81 -0.03 -3.14303 7.96967 0.00903354 0.00869392 -0.000158391 0.00887806 1.57174e-07 271.248 
-0.79 -0.03 -3.18563 8.09967 0.00905185 0.00871927 -0.000156613 0.00890173 1.57539e-07 271.343 
-0.77 -0.03 -3.56844 7.52333 0.00906071 0.00874625 -0.000163632 0.0089153 1.57657e-07 271.552 
-0.95 -0.17 -0.7596 5.05209 0.00908227 0.00869935 -0.000145404 0.00889929 1.57361e-07 271.574 
-0.99 -0.15 -0.150808 4.8558 0.00903811 0.00870262 -0.000177582 0.00888771 1.57131e-07 271.618 
-0.89 -0.17 -1.9183 5.87901 0.00910931 0.00866878 -0.000119733 0.00890574 1.57341e-07 271.805 
-0.97 -0.15 -0.369492 5.44154 0.00906081 0.00870443 -0.000162471 0.00889284 1.57274e-07 271.527 
-0.95 -0.15 -0.835465 5.62217 0.00906882 0.00867809 -0.000152022 0.00888376 1.57141e-07 271.48 
-0.93 -0.15 -1.15618 5.93756 0.00907694 0.00867125 -0.000137389 0.00889027 1.57281e-07 271.437 
-0.83 -0.17 -2.99373 5.608 0.00913194 0.0087151 -0.00010363 0.00893682 1.57849e-07 271.876 
-0.91 -0.15 -1.42062 6.2365 0.00909208 0.00867567 -0.000135709 0.00890136 1.5737e-07 271.622 
-0.99 -0.13 -0.265087 5.22629 0.00904569 0.00870163 -0.000192619 0.00888607 1.57211e-07 271.429 
-0.89 -0.15 -1.64157 6.19172 0.00908674 0.00865418 -0.000127654 0.00888726 1.57206e-07 271.474 
-0.97 -0.13 -0.516531 5.86878 0.00905622 0.00868472 -0.000170783 0.00888266 1.57153e-07 271.425 
-0.87 -0.15 -2.31633 5.99362 0.00909442 0.00868251 -0.000121722 0.00891084 1.57405e-07 271.851 
-0.95 -0.13 -0.945184 6.01749 0.00906926 0.00866504 -0.000164049 0.00888129 1.57224e-07 271.261 
-0.77 -0.17 -4.18491 5.24425 0.0091535 0.00873111 -0.000107743 0.00896053 1.58415e-07 271.624 
-0.85 -0.15 -2.6353 6.29154 0.00910385 0.00867994 -0.000112379 0.00890719 1.57511e-07 271.557 
-0.93 -0.13 -1.1839 6.12919 0.00908227 0.00867041 -0.000154659 0.00889208 1.57211e-07 271.613 
-0.83 -0.15 -2.98092 6.08234 0.00911896 0.008704 -0.000118991 0.0089252 1.57806e-07 271.597 
-0.91 -0.13 -1.59425 6.62115 0.00907996 0.00865585 -0.000140613 0.00889243 1.57302e-07 271.467 
-0.99 -0.11 -0.130702 5.63485 0.00903776 0.00868851 -0.000186088 0.00887745 1.56925e-07 271.66 
-0.81 -0.15 -3.31756 6.17801 0.00912989 0.00870459 -0.000113697 0.00893391 1.578e-07 271.873 
-0.89 -0.13 -1.91931 6.45697 0.00909188 0.00865869 -0.000131905 0.00889334 1.5743e-07 271.273 
-0.97 -0.11 -0.583181 6.16148 0.0090326 0.00867126 -0.00018621 0.00887052 1.56861e-07 271.558 
-0.79 -0.15 -3.8393 5.86773 0.00913549 0.00872932 -0.000121453 0.00895206 1.58145e-07 271.83 
-0.87 -0.13 -2.41625 6.67372 0.00910029 0.00866413 -0.000128479 0.00890277 1.5754e-07 271.371 
-0.95 -0.11 -0.855172 6.37235 0.00904504 0.00865815 -0.000172826 0.00886951 1.57006e-07 271.277 
-0.77 -0.15 -4.25222 5.65785 0.00914242 0.00873434 -0.000116778 0.00895505 1.58406e-07 271.474 
-0.85 -0.13 -2.73766 6.33791 0.00911943 0.00868713 -0.000125865 0.00891605 1.57618e-07 271.641 
-0.93 -0.11 -1.26729 6.54878 0.00905863 0.0086569 -0.000164046 0.00887476 1.57134e-07 271.217 
-0.75 -0.15 -4.60403 5.79724 0.00914681 0.00873945 -0.00011443 0.00895682 1.58473e-07 271.411 
-0.83 -0.13 -2.95103 6.56226 0.00912757 0.00869844 -0.000126847 0.00892817 1.57616e-07 272.015 
-0.91 -0.11 -1.48894 6.93182 0.00906589 0.00864307 -0.00015069 0.00887334 1.5709e-07 271.249 
-0.99 -0.09 -0.080302 5.91927 0.0089969 0.00868124 -0.000201936 0.00885313 1.5664e-07 271.409 
-0.81 -0.13 -3.46193 6.49352 0.00911756 0.00870354 -0.000117095 0.00892726 1.58016e-07 271.299 
-0.89 -0.11 -1.88223 6.93683 0.00908306 0.00865511 -0.000142644 0.00888362 1.57484e-07 270.885 
-0.97 -0.09 -0.468943 6.68993 0.00901806 0.00866167 -0.000191735 0.00886396 1.56831e-07 271.41 
-0.79 -0.13 -3.60099 6.42903 0.00912741 0.00872866 -0.000125761 0.00894699 1.58102e-07 271.751 
-0.87 -0.11 -2.22506 7.03705 0.00909587 0.008659 -0.000144371 0.00889803 1.57549e-07 271.211 
-0.95 -0.09 -0.931593 6.71041 0.00903129 0.00865537 -0.000181118 0.00887 1.56947e-07 271.394 
-0.77 -0.13 -4.08969 6.07045 0.00912764 0.00873 -0.000120332 0.00894364 1.58119e-07 271.619 
-0.85 -0.11 -2.61472 6.7379 0.00910151 0.00868651 -0.000133326 0.00890633 1.57656e-07 271.28 
-0.93 -0.09 -1.20888 6.75792 0.00903654 0.00863949 -0.000178117 0.00885728 1.56987e-07 270.936 
-0.83 -0.11 -3.0109 7.02602 0.0090995 0.00868479 -0.000123934 0.00891016 1.57628e-07 271.446 
-0.91 -0.09 -1.44544 7.28757 0.00904445 0.00863256 -0.00015853 0.00885976 1.56911e-07 271.143 
-0.99 -0.07 -0.328816 6.2728 0.00900132 0.00867577 -0.00020468 0.00885354 1.56555e-07 271.57 
-0.81 -0.11 -3.35146 6.60938 0.00912051 0.008716 -0.000127445 0.00893278 1.57813e-07 271.815 
-0.89 -0.09 -1.91348 7.29682 0.00905585 0.00865307 -0.000159027 0.00887495 1.57238e-07 271.044 
-0.97 -0.07 -0.528346 7.0216 0.00899032 0.00864799 -0.000203891 0.00884087 1.56437e-07 271.386 
-0.79 -0.11 -3.49231 6.76735 0.00912493 0.0087227 -0.000129175 0.00894353 1.58207e-07 271.465 
-0.87 -0.09 -2.16788 7.40107 0.00906999 0.00865516 -0.000155267 0.00888556 1.57475e-07 270.959 
-0.95 -0.07 -0.726229 7.03997 0.00899504 0.00865135 -0.000192317 0.00884675 1.56463e-07 271.521 
-0.77 -0.11 -3.99346 6.31384 0.00912751 0.00872179 -0.000126585 0.00894124 1.58042e-07 271.679 
-0.85 -0.09 -2.59015 7.1761 0.00907609 0.0086687 -0.000144772 0.00888812 1.57367e-07 271.223 
-0.93 -0.07 -1.17084 7.24069 0.00900277 0.00862534 -0.000180836 0.00884137 1.56635e-07 271.057 
-0.75 -0.11 -4.44052 6.24995 0.00913788 0.00874888 -0.000126768 0.00895166 1.58341e-07 271.482 
-0.83 -0.09 -2.88105 7.15881 0.00909381 0.00868711 -0.000136789 0.00890961 1.57607e-07 271.466 
-0.91 -0.07 -1.68378 7.57454 0.00902359 0.00862562 -0.000178848 0.00884967 1.56607e-07 271.36 
-0.99 -0.05 -0.00790585 6.64269 0.00898184 0.00866428 -0.00021556 0.00883889 1.56401e-07 271.387 
-0.81 -0.09 -3.19857 7.08842 0.00909979 0.00871777 -0.000140545 0.00892233 1.57885e-07 271.374 
-0.89 -0.07 -1.95627 7.60729 0.00903713 0.0086511 -0.00017492 0.00886469 1.5696e-07 271.209 
-0.97 -0.05 -0.486331 7.20087 0.00900723 0.00865001 -0.00020727 0.00884794 1.56605e-07 271.311 
-0.79 -0.09 -3.64578 6.97001 0.00910102 0.00871922 -0.000127659 0.0089244 1.57838e-07 271.517 
-0.87 -0.07 -2.33634 7.81271 0.00903767 0.00863975 -0.000157021 0.00886104 1.56848e-07 271.291 
-0.95 -0.05 -0.751354 7.42982 0.00900551 0.00863155 -0.000196023 0.00883909 1.56357e-07 271.469 
-0.77 -0.09 -3.83175 6.87114 0.0090994 0.00872113 -0.000125081 0.00893092 1.57941e-07 271.539 
-0.85 -0.07 -2.56138 7.51456 0.00904621 0.00865842 -0.000150218 0.00887654 1.56922e-07 271.637 
-0.93 -0.05 -1.27017 7.75828 0.00900387 0.00862252 -0.000183843 0.00883673 1.56412e-07 271.302 
-0.75 -0.09 -4.11229 6.57662 0.00909728 0.00874945 -0.000136767 0.00893999 1.58065e-07 271.6 
-0.83 -0.07 -2.89575 7.56837 0.00905678 0.00869017 -0.000147728 0.00888807 1.57196e-07 271.517 
-0.91 -0.05 -1.47319 7.95116 0.00900095 0.00862432 -0.000185489 0.00883488 1.56412e-07 271.244 
-0.99 -0.03 -0.17481 6.94397 0.00895293 0.00865521 -0.000230968 0.00881937 1.56023e-07 271.444 
-0.81 -0.07 -3.30312 7.63322 0.00905648 0.00870617 -0.000146063 0.00889955 1.5745e-07 271.428 
-0.89 -0.05 -1.82515 8.01316 0.00900231 0.0086344 -0.000178201 0.00884331 1.5661e-07 271.16 
-0.97 -0.03 -0.39868 7.57395 0.00895782 0.00862825 -0.000213296 0.00881126 1.56034e-07 271.174 