ITEM: TIMESTEP
1071000
ITEM: NUMBER OF CELLS
5000
ITEM: BOX BOUNDS ss ss pp
-1 1
-0.5 0.5
-0.5 0.5
ITEM: CELLS xc yc f_U[*] f_V[*] f_Tau[1] f_Tau[2] f_Tau[3] f_Press[*] f_Mrho[*] f_Ttra[*] 
-0.99 -0.49 -0.212151 0.276702 0.00899527 0.00875153 -2.79921e-05 0.00888623 1.56743e-07 272.244 
-0.97 -0.49 -0.57695 0.0773041 0.00899063 0.00875212 -3.10786e-05 0.00888474 1.5663e-07 272.396 
-0.95 -0.49 -0.70464 0.0446618 0.00899147 0.00875203 -3.12132e-05 0.00888064 1.56599e-07 272.324 
-0.93 -0.49 -0.909208 0.108893 0.00899812 0.0087462 -2.31911e-05 0.00888169 1.56673e-07 272.227 
-0.91 -0.49 -1.15649 0.0843363 0.00900136 0.00872569 -2.24904e-05 0.00886793 1.56435e-07 272.218 
-0.99 -0.47 -0.15958 0.542391 0.00901883 0.00877193 -1.79121e-05 0.00890545 1.57052e-07 272.296 
-0.89 -0.49 -1.51489 0.226671 0.0090159 0.00874239 -2.26795e-05 0.008883 1.56742e-07 272.147 
-0.97 -0.47 -0.408709 0.373446 0.0090191 0.00874937 -3.25273e-05 0.00889878 1.56862e-07 272.423 
-0.87 -0.49 -1.72578 0.0479824 0.0090342 0.00875725 -1.73232e-05 0.00889872 1.57016e-07 272.154 
-0.95 -0.47 -0.680384 0.29533 0.00902436 0.00875359 -3.19461e-05 0.0088986 1.56865e-07 272.412 
-0.85 -0.49 -1.98681 0.125983 0.00903977 0.00875594 -1.03283e-05 0.00890053 1.56915e-07 272.384 
-0.93 -0.47 -0.907633 0.319223 0.00902762 0.00874167 -3.35758e-05 0.00889195 1.56816e-07 272.294 
-0.83 -0.49 -2.07136 -0.0106911 0.00904711 0.00876447 2.0688e-06 0.00891114 1.57167e-07 272.271 
-0.91 -0.47 -1.24158 0.537119 0.00903995 0.00873101 -3.06469e-05 0.0088915 1.56883e-07 272.163 
-0.99 -0.45 -0.115384 0.902095 0.00905232 0.00877298 -2.89644e-05 0.00892263 1.57313e-07 272.37 
-0.81 -0.49 -2.24857 0.196948 0.00905853 0.00876986 1.10833e-05 0.00892162 1.57363e-07 272.252 
-0.89 -0.47 -1.6308 0.480451 0.00904327 0.00873877 -3.20484e-05 0.00889131 1.56928e-07 272.08 
-0.97 -0.45 -0.413699 0.61303 0.00905472 0.00876133 -3.2818e-05 0.00892236 1.5733e-07 272.331 
-0.79 -0.49 -2.52479 0.0972413 0.0090692 0.00877878 1.28689e-05 0.00893285 1.57519e-07 272.325 
-0.87 -0.47 -1.91258 0.277804 0.00904706 0.00874676 -2.84471e-05 0.00890454 1.57157e-07 272.088 
-0.95 -0.45 -0.753197 0.593777 0.00905612 0.00875134 -3.50194e-05 0.00891421 1.5711e-07 272.465 
-0.77 -0.49 -2.54969 -0.0460813 0.00907226 0.00878876 2.27905e-05 0.00894009 1.57578e-07 272.444 
-0.85 -0.47 -1.97911 0.356424 0.00905589 0.00874846 -1.49278e-05 0.00891165 1.57149e-07 272.318 
-0.93 -0.45 -1.15233 0.540494 0.00906162 0.00874041 -4.11859e-05 0.00890766 1.5714e-07 272.212 
-0.83 -0.47 -2.41007 0.197981 0.00906396 0.00875704 -1.0324e-05 0.00891834 1.57296e-07 272.267 
-0.91 -0.45 -1.29667 0.737287 0.00905931 0.00873331 -3.75805e-05 0.00889769 1.57075e-07 272.02 
-0.99 -0.43 -0.216491 1.14583 0.00905537 0.00877008 -3.57083e-05 0.00892739 1.57634e-07 271.96 
-0.81 -0.47 -2.60317 0.443628 0.00907484 0.00876057 -2.18933e-06 0.00893061 1.57432e-07 272.407 
-0.89 -0.45 -1.57199 0.877407 0.00907246 0.00873417 -3.82044e-05 0.00890355 1.57126e-07 272.11 
-0.97 -0.43 -0.478672 0.932727 0.00907069 0.00876876 -3.84089e-05 0.00893199 1.57566e-07 272.217 
-0.79 -0.47 -2.9038 0.344451 0.00908508 0.00877197 7.91395e-06 0.00894233 1.57674e-07 272.345 
-0.87 -0.45 -2.00485 0.585589 0.00907561 0.00873989 -2.55401e-05 0.00891036 1.57182e-07 272.222 
-0.95 -0.43 -0.795404 0.924906 0.00907874 0.00875166 -4.28551e-05 0.00892289 1.5744e-07 272.158 
-0.77 -0.47 -3.18399 0.0564981 0.00909389 0.00877909 1.14685e-05 0.00894645 1.57831e-07 272.201 
-0.85 -0.45 -2.30804 0.493684 0.00908005 0.00873905 -2.26996e-05 0.00891881 1.57385e-07 272.128 
-0.93 -0.43 -1.00926 0.914381 0.00908129 0.00874122 -3.7792e-05 0.00891533 1.57262e-07 272.235 
-0.75 -0.47 -3.27764 0.381485 0.00910518 0.00879223 1.89615e-05 0.00895321 1.57779e-07 272.497 
-0.83 -0.45 -2.51698 0.576734 0.00909128 0.00875781 -2.02119e-05 0.00893121 1.57565e-07 272.195 
-0.91 -0.43 -1.51813 0.994977 0.00908643 0.00873692 -4.32335e-05 0.00891474 1.57277e-07 272.191 
-0.99 -0.41 -0.144039 1.46959 0.00907819 0.00877425 -4.73569e-05 0.00893822 1.57733e-07 272.119 
-0.81 -0.45 -2.87829 0.756708 0.00909275 0.00874343 -1.11107e-05 0.00892907 1.57545e-07 272.164 
-0.89 -0.43 -1.73957 1.1628 0.00908098 0.00872782 -4.07194e-05 0.00891112 1.57314e-07 272.016 
-0.97 -0.41 -0.398142 1.17493 0.00908451 0.00876697 -5.02038e-05 0.00893285 1.57558e-07 272.257 
-0.79 -0.45 -2.98815 0.517554 0.00910112 0.0087638 1.82712e-06 0.00894183 1.57766e-07 272.173 
-0.87 -0.43 -1.97907 0.958522 0.00908576 0.00872911 -3.81115e-05 0.00891591 1.57328e-07 272.139 
-0.95 -0.41 -0.653236 1.26877 0.00909128 0.00875623 -4.60138e-05 0.00893343 1.57555e-07 272.281 
-0.77 -0.45 -3.3692 0.418194 0.00911033 0.00877749 5.89458e-06 0.0089495 1.57831e-07 272.293 
-0.85 -0.43 -2.36395 0.832595 0.00910143 0.00873904 -3.13957e-05 0.00892984 1.57602e-07 272.089 
-0.93 -0.41 -1.26331 1.36568 0.00909465 0.00873438 -4.55356e-05 0.00892672 1.57475e-07 272.214 
-0.75 -0.45 -3.67488 0.501782 0.00911427 0.00878334 7.62664e-06 0.00895527 1.58028e-07 272.13 
-0.83 -0.43 -2.69659 0.850255 0.0091059 0.00874992 -1.96857e-05 0.00893553 1.57603e-07 272.262 
-0.91 -0.41 -1.43326 1.29418 0.00909974 0.00873586 -4.06572e-05 0.00892764 1.57567e-07 272.083 
-0.99 -0.39 -0.141043 1.7394 0.00908303 0.00877867 -5.28548e-05 0.00894069 1.57857e-07 271.981 
-0.81 -0.43 -3.02297 0.962331 0.00911258 0.00873514 -1.76967e-05 0.00893473 1.57651e-07 272.155 
-0.89 -0.41 -1.72598 1.41334 0.00910109 0.0087307 -4.49529e-05 0.00892557 1.57423e-07 272.269 
-0.97 -0.39 -0.527749 1.46762 0.00909527 0.00876874 -5.38011e-05 0.00893846 1.57714e-07 272.16 
-0.79 -0.43 -3.3669 0.827008 0.00911847 0.00875545 -8.47685e-06 0.00894818 1.57912e-07 272.114 
-0.87 -0.41 -2.10637 1.31588 0.00910639 0.00872665 -3.95127e-05 0.00892916 1.57479e-07 272.282 
-0.95 -0.39 -0.898365 1.59192 0.00909832 0.00875132 -5.397e-05 0.00893037 1.57483e-07 272.311 
-0.77 -0.43 -3.65088 0.76185 0.0091253 0.00877407 -1.96052e-07 0.00895912 1.58099e-07 272.123 
-0.85 -0.41 -2.57319 1.17015 0.00910469 0.00873351 -3.90703e-05 0.00892898 1.57614e-07 272.042 
-0.93 -0.39 -0.908339 1.60146 0.00910428 0.00873286 -4.77449e-05 0.00892944 1.57543e-07 272.18 
-0.83 -0.41 -2.78226 1.18438 0.00911401 0.00873571 -3.08736e-05 0.00892875 1.57584e-07 272.088 
-0.91 -0.39 -1.35111 1.74809 0.00911073 0.00873512 -4.70659e-05 0.00893636 1.57661e-07 272.187 
-0.99 -0.37 -0.000465813 2.02758 0.00908864 0.00878544 -6.34583e-05 0.00894686 1.57972e-07 271.97 
-0.81 -0.41 -3.03084 1.29681 0.00911872 0.00873056 -1.9235e-05 0.00893275 1.57741e-07 271.939 
-0.89 -0.39 -1.67558 1.66787 0.00911753 0.00873492 -4.72137e-05 0.00894041 1.5767e-07 272.294 
-0.97 -0.37 -0.423308 1.94581 0.00909628 0.008763 -6.22071e-05 0.008939 1.57775e-07 272.07 
-0.79 -0.41 -3.37994 1.10798 0.00913147 0.0087508 -1.98751e-05 0.00895205 1.57989e-07 272.099 
-0.87 -0.39 -1.96723 1.69679 0.00911965 0.00871916 -4.53196e-05 0.00893023 1.57683e-07 271.962 
-0.95 -0.37 -0.785008 1.80055 0.00910251 0.00874627 -5.56021e-05 0.00893347 1.57681e-07 272.063 
-0.77 -0.41 -3.73441 1.10661 0.00914014 0.0087722 -1.35721e-05 0.00896875 1.58268e-07 272.125 
-0.85 -0.39 -2.34622 1.60991 0.00912911 0.00873376 -4.14712e-05 0.00894094 1.57871e-07 271.964 
-0.93 -0.37 -1.22827 1.92356 0.00910615 0.00873372 -5.77367e-05 0.00893215 1.57666e-07 272.05 
-0.75 -0.41 -3.9733 0.938591 0.00915234 0.00877789 -1.1043e-05 0.00897572 1.58359e-07 272.181 
-0.83 -0.39 -2.73086 1.50095 0.00912808 0.00872076 -3.75964e-05 0.0089313 1.57681e-07 271.998 
-0.91 -0.37 -1.44283 1.96019 0.00911763 0.00873133 -5.87455e-05 0.00893713 1.57639e-07 272.248 
-0.99 -0.35 -0.23527 2.23269 0.0090982 0.00878582 -7.49663e-05 0.00895402 1.58222e-07 271.758 
-0.81 -0.39 -3.0751 1.50733 0.00913741 0.00873214 -3.32288e-05 0.00894487 1.57801e-07 272.205 
-0.89 -0.37 -1.72553 2.02087 0.00912418 0.00873127 -5.07689e-05 0.00893827 1.57856e-07 271.908 
-0.97 -0.35 -0.419651 2.33596 0.00910256 0.00875307 -6.86786e-05 0.00893939 1.57837e-07 271.976 
-0.79 -0.39 -3.36277 1.48787 0.00914255 0.00873995 -2.58056e-05 0.00895184 1.58059e-07 271.971 
-0.87 -0.37 -2.13429 2.1087 0.00912606 0.00871866 -5.10637e-05 0.00893494 1.57734e-07 272.018 
-0.95 -0.35 -0.806426 2.18098 0.00911455 0.00874278 -6.51177e-05 0.00893812 1.57795e-07 272.009 
-0.77 -0.39 -3.76244 1.43046 0.00915172 0.00877265 -2.12593e-05 0.0089733 1.58351e-07 272.12 
-0.85 -0.37 -2.53492 2.00915 0.0091293 0.00872573 -4.99218e-05 0.00893565 1.57813e-07 271.903 
-0.93 -0.35 -1.15651 2.2373 0.00912494 0.00873662 -6.48151e-05 0.00894103 1.57835e-07 272.029 
-0.83 -0.37 -2.98496 1.78619 0.00913619 0.00871463 -4.01458e-05 0.00893237 1.57737e-07 271.933 
-0.91 -0.35 -1.52727 2.33041 0.00912418 0.00873033 -5.92465e-05 0.00893511 1.57667e-07 272.138 
-0.81 -0.37 -3.22869 1.78084 0.00914481 0.00872872 -3.44132e-05 0.0089471 1.57899e-07 272.103 
-0.89 -0.35 -1.90511 2.47358 0.00912504 0.00872203 -5.50685e-05 0.00893251 1.57739e-07 271.934 
-0.79 -0.37 -3.60763 1.88826 0.0091492 0.00873595 -3.30889e-05 0.00895839 1.58216e-07 271.9 
-0.87 -0.35 -2.27978 2.35832 0.00913203 0.00872011 -5.53572e-05 0.00893647 1.57801e-07 271.948 
-0.77 -0.37 -3.88062 1.9273 0.00915753 0.00876919 -2.89977e-05 0.00897146 1.58207e-07 272.312 
-0.85 -0.35 -2.59555 2.43312 0.00913807 0.0087173 -4.93166e-05 0.00893815 1.5788e-07 271.863 
-0.83 -0.35 -2.93975 2.13318 0.00914071 0.00871434 -4.87941e-05 0.00893593 1.57873e-07 271.808 
-0.81 -0.35 -3.38571 2.17023 0.00914694 0.0087246 -4.96376e-05 0.00894921 1.57956e-07 272.069 
-0.79 -0.35 -3.70209 2.20714 0.00916431 0.00873399 -4.42497e-05 0.00895978 1.58245e-07 271.894 
-0.77 -0.35 -3.90682 2.19974 0.00917577 0.00875677 -3.56477e-05 0.00897739 1.58317e-07 272.303 
-0.75 -0.35 -4.18698 2.22073 0.00918658 0.00876977 -2.87064e-05 0.00898683 1.58613e-07 272.081 
-0.75 -0.49 -2.74983 0.183885 0.00907932 0.00879319 2.81378e-05 0.0089407 1.5763e-07 272.373 
-0.75 -0.43 -3.87954 0.685206 0.00913586 0.00878036 -3.49956e-06 0.00896835 1.58153e-07 272.312 
-0.75 -0.39 -4.34341 1.34059 0.00915281 0.00877327 -2.03913e-05 0.00897375 1.58365e-07 272.111 
-0.75 -0.37 -4.2523 1.83437 0.00916161 0.00877004 -1.67432e-05 0.00897403 1.58355e-07 272.135 
-0.77 -0.33 -3.90866 2.43938 0.00916657 0.0087471 -4.88017e-05 0.00896543 1.58405e-07 271.79 
-0.73 -0.49 -3.04045 0.161189 0.00908586 0.00881005 2.61418e-05 0.00895556 1.57887e-07 272.38 
-0.73 -0.47 -3.37498 0.288933 0.0091127 0.00880277 2.41579e-05 0.0089687 1.5813e-07 272.361 
-0.73 -0.45 -3.84584 0.445479 0.00912821 0.00880311 1.26118e-05 0.00897344 1.58274e-07 272.258 
-0.73 -0.43 -4.1811 0.867668 0.00914464 0.00880016 6.43157e-07 0.00898265 1.58433e-07 272.263 
-0.73 -0.41 -4.34959 1.12715 0.0091616 0.00879684 -7.89891e-06 0.00898673 1.58603e-07 272.094 
-0.73 -0.39 -4.50065 1.43218 0.00915615 0.00878805 -8.81172e-06 0.00897602 1.58463e-07 272.011 
-0.73 -0.37 -4.82742 1.66701 0.00916703 0.00877656 -2.3847e-05 0.00897582 1.5851e-07 271.924 
-0.73 -0.35 -4.46528 1.94241 0.00918953 0.00878226 -2.63688e-05 0.00898974 1.58705e-07 272.011 
-0.81 -0.29 -3.34493 3.35937 0.00916086 0.00872046 -6.48724e-05 0.00894885 1.58085e-07 271.835 
-0.89 -0.27 -1.9018 3.83107 0.00912719 0.00869833 -8.79408e-05 0.00892991 1.57748e-07 271.84 
-0.97 -0.25 -0.446338 3.72863 0.00908995 0.00872888 -0.000111402 0.00892148 1.57742e-07 271.594 
-0.83 -0.29 -2.94345 3.34848 0.00915512 0.00871659 -6.85471e-05 0.00894699 1.57864e-07 272.16 
-0.91 -0.27 -1.4471 3.91795 0.0091261 0.0087066 -8.98774e-05 0.00893114 1.57768e-07 271.843 
-0.99 -0.25 -0.114856 3.76487 0.00908106 0.00875699 -0.000118851 0.00893442 1.57972e-07 271.592 
-0.79 -0.29 -3.63695 3.20829 0.00916617 0.00872308 -6.22873e-05 0.00895295 1.58149e-07 271.85 
-0.87 -0.27 -2.34068 3.9383 0.0091357 0.0087045 -7.89551e-05 0.00893835 1.57856e-07 271.911 
-0.95 -0.25 -0.793193 3.88629 0.00910526 0.00871918 -0.000105149 0.00892788 1.57773e-07 271.735 
-0.77 -0.29 -4.04067 3.2279 0.00917776 0.00873685 -5.75634e-05 0.00896634 1.58312e-07 271.976 
-0.85 -0.27 -2.68178 3.79394 0.00914917 0.00871428 -7.64023e-05 0.00894585 1.57949e-07 271.979 
-0.93 -0.25 -1.1194 4.11723 0.00911038 0.00870798 -0.000103053 0.00892411 1.57649e-07 271.834 
-0.75 -0.29 -4.53105 3.20347 0.00918684 0.00875732 -5.68775e-05 0.0089832 1.5859e-07 272.011 
-0.83 -0.27 -3.12714 3.65818 0.00915773 0.00871814 -7.1933e-05 0.0089504 1.57955e-07 272.106 
-0.91 -0.25 -1.45541 4.21318 0.00911633 0.00869704 -9.77575e-05 0.00892181 1.57612e-07 271.827 
-0.99 -0.23 -0.0676727 3.95947 0.00906772 0.00875279 -0.000128451 0.00892306 1.57748e-07 271.631 
-0.81 -0.27 -3.49986 3.70287 0.00916154 0.00871597 -7.59683e-05 0.00894823 1.58037e-07 271.9 
-0.89 -0.25 -1.78347 4.20914 0.00912789 0.00869867 -8.9948e-05 0.00893301 1.5773e-07 271.965 
-0.97 -0.23 -0.32003 4.12215 0.00908204 0.00872943 -0.000120814 0.0089186 1.5766e-07 271.648 
-0.79 -0.27 -3.92473 3.5817 0.00917473 0.00871926 -6.98118e-05 0.00895195 1.58231e-07 271.68 
-0.87 -0.25 -2.13975 4.32719 0.0091368 0.00869828 -9.16621e-05 0.00893802 1.57921e-07 271.788 
-0.95 -0.23 -0.799068 4.32799 0.00908753 0.00870995 -0.000119539 0.00891057 1.57458e-07 271.751 
-0.77 -0.27 -4.28575 3.61656 0.00917543 0.00873542 -6.452e-05 0.00896845 1.58466e-07 271.777 
-0.85 -0.25 -2.56814 4.18056 0.00914932 0.0087109 -8.88262e-05 0.00894611 1.57949e-07 271.986 
-0.93 -0.23 -1.17612 4.43243 0.00910601 0.00870344 -0.000112094 0.00891819 1.57504e-07 271.904 
-0.83 -0.25 -3.01786 4.14314 0.0091551 0.00870702 -8.05307e-05 0.00893795 1.57964e-07 271.713 
-0.91 -0.23 -1.50983 4.42142 0.00911618 0.00868997 -0.000102295 0.0089214 1.57562e-07 271.901 
-0.99 -0.21 -0.0644862 4.14314 0.00908566 0.00874541 -0.000135493 0.00892706 1.57793e-07 271.675 
-0.81 -0.25 -3.32549 4.07659 0.00916141 0.00872423 -7.49698e-05 0.00895188 1.58123e-07 271.862 
-0.89 -0.23 -1.906 4.77111 0.00912449 0.00869816 -0.000104324 0.00892553 1.57637e-07 271.898 
-0.97 -0.21 -0.329207 4.45745 0.00909322 0.0087168 -0.000131696 0.00891472 1.57594e-07 271.643 
-0.79 -0.25 -3.79148 4.10805 0.00915491 0.00871021 -7.83763e-05 0.00894418 1.58137e-07 271.604 
-0.87 -0.23 -2.3961 4.62998 0.00913712 0.00869486 -0.000105098 0.00892765 1.57781e-07 271.715 
-0.95 -0.21 -0.65619 4.71115 0.00910082 0.00871172 -0.000125582 0.00891898 1.57628e-07 271.714 
-0.77 -0.25 -4.19964 3.84139 0.0091676 0.00873383 -7.62658e-05 0.00895647 1.58276e-07 271.738 
-0.85 -0.23 -2.67868 4.65152 0.00914153 0.00870467 -9.32712e-05 0.00893312 1.57814e-07 271.824 
-0.93 -0.21 -1.15429 4.86948 0.00910258 0.00869208 -0.000123418 0.00891317 1.57576e-07 271.627 
-0.83 -0.23 -3.04496 4.56142 0.0091427 0.00869792 -8.59386e-05 0.0089321 1.57812e-07 271.796 
-0.91 -0.21 -1.4924 4.78108 0.00911311 0.00868535 -0.000116275 0.00891572 1.57576e-07 271.704 
-0.99 -0.19 -0.224595 4.44265 0.00907651 0.0087355 -0.000149328 0.0089186 1.57608e-07 271.737 
-0.81 -0.23 -3.52677 4.34116 0.00915182 0.00871693 -8.15429e-05 0.00894661 1.57994e-07 271.924 
-0.89 -0.21 -1.87771 5.20185 0.00912996 0.00870174 -0.0001119 0.00893198 1.57748e-07 271.903 
-0.97 -0.19 -0.527142 4.73889 0.00908473 0.00870773 -0.000136919 0.00890578 1.57426e-07 271.66 
-0.79 -0.23 -3.65318 4.49461 0.00916491 0.00871967 -7.80313e-05 0.00895568 1.58149e-07 271.933 
-0.87 -0.21 -2.21148 5.05203 0.00913147 0.00868159 -0.000107875 0.00892153 1.57749e-07 271.583 
-0.95 -0.19 -0.796027 5.02465 0.00909589 0.00871057 -0.000133847 0.00891315 1.57554e-07 271.664 
-0.77 -0.23 -3.96759 4.22564 0.00916468 0.00872936 -8.6592e-05 0.00895261 1.58216e-07 271.725 
-0.85 -0.21 -2.76303 5.0086 0.00913609 0.0086953 -9.78e-05 0.00892862 1.57761e-07 271.778 
-0.93 -0.19 -0.900575 5.22661 0.00910524 0.00868703 -0.000128685 0.00891152 1.57578e-07 271.572 
-0.75 -0.23 -4.51229 4.08 0.00917377 0.00874261 -8.32224e-05 0.00896773 1.58457e-07 271.77 
-0.83 -0.21 -3.10511 4.79154 0.00914979 0.00869917 -9.38793e-05 0.00893728 1.57818e-07 271.943 
-0.91 -0.19 -1.33485 5.28848 0.00910789 0.00868066 -0.000126331 0.00890713 1.57445e-07 271.669 
-0.81 -0.21 -3.32111 4.73196 0.00915279 0.00870886 -8.86409e-05 0.0089482 1.58095e-07 271.798 
-0.89 -0.19 -1.87989 5.53368 0.00911349 0.00869154 -0.000116316 0.00891826 1.57572e-07 271.788 
-0.79 -0.21 -3.73339 4.77468 0.00915512 0.00871962 -8.7273e-05 0.00895354 1.58246e-07 271.702 
-0.87 -0.19 -2.3638 5.48566 0.00911683 0.0086818 -0.000109111 0.00891728 1.57653e-07 271.619 
-0.77 -0.21 -4.1669 4.69942 0.00916608 0.00873458 -8.95273e-05 0.00896168 1.58377e-07 271.723 
-0.85 -0.19 -2.6399 5.41287 0.00912115 0.00868549 -0.000109168 0.00891782 1.57617e-07 271.698 
-0.75 -0.21 -4.5784 4.55477 0.00916712 0.00874147 -9.24236e-05 0.00896594 1.58397e-07 271.819 
-0.83 -0.19 -2.9558 5.10675 0.00912051 0.0086963 -0.000105 0.00892406 1.57743e-07 271.671 
-0.81 -0.19 -3.34344 5.16099 0.00913912 0.00869879 -9.7904e-05 0.00893308 1.57882e-07 271.705 
-0.79 -0.19 -3.82621 5.12628 0.00915756 0.00872921 -9.77658e-05 0.00895907 1.58244e-07 271.873 
-0.77 -0.19 -4.12079 5.17364 0.00916897 0.00873137 -9.99992e-05 0.00896412 1.58393e-07 271.77 
-0.99 -0.33 -0.0689645 2.48388 0.00909759 0.00878084 -8.23732e-05 0.0089475 1.5801e-07 271.923 
-0.97 -0.33 -0.437479 2.6106 0.00911241 0.00875257 -8.14966e-05 0.00894336 1.57906e-07 271.977 
-0.91 -0.33 -1.54691 2.74703 0.0091401 0.00872144 -6.56619e-05 0.00893843 1.57686e-07 272.206 
-0.99 -0.31 -0.205419 2.82902 0.00909439 0.0087724 -9.58237e-05 0.00894124 1.57941e-07 271.852 
-0.97 -0.31 -0.406239 2.89031 0.00910128 0.00875256 -8.89709e-05 0.00893699 1.57957e-07 271.695 
-0.87 -0.33 -2.28831 2.79098 0.00915096 0.00872486 -5.68156e-05 0.00894936 1.57979e-07 272.034 
-0.95 -0.31 -0.786203 3.03073 0.0091093 0.00872735 -8.46158e-05 0.00892927 1.57676e-07 271.946 
-0.85 -0.33 -2.52767 2.67254 0.00914628 0.00871279 -5.42229e-05 0.00893956 1.57745e-07 272.139 
-0.93 -0.31 -1.15733 2.95548 0.00912253 0.00873151 -8.29185e-05 0.00894078 1.57761e-07 272.148 
-0.91 -0.31 -1.49765 3.01873 0.00913091 0.00871263 -6.88103e-05 0.00893871 1.57706e-07 272.181 
-0.99 -0.29 -0.127866 3.11016 0.00908683 0.00877053 -0.000103442 0.00894204 1.5797e-07 271.827 
-0.81 -0.33 -3.38557 2.56096 0.00915862 0.00872664 -5.41588e-05 0.00895219 1.58128e-07 271.864 
-0.89 -0.31 -1.80326 3.19813 0.00913707 0.00871136 -6.50123e-05 0.00893595 1.57806e-07 271.923 
-0.97 -0.29 -0.420306 3.15427 0.00909858 0.00874382 -9.83695e-05 0.00893158 1.5777e-07 271.853 
-0.87 -0.31 -2.23483 3.10368 0.00914289 0.00871785 -6.15695e-05 0.00893968 1.57893e-07 271.888 
-0.95 -0.29 -0.728451 3.39557 0.00910581 0.00872393 -9.50506e-05 0.00892659 1.57612e-07 271.973 
-0.85 -0.31 -2.57528 2.93183 0.00915355 0.00871333 -5.99397e-05 0.00894583 1.57973e-07 271.937 
-0.93 -0.29 -1.05625 3.26908 0.00911068 0.00872021 -8.61421e-05 0.00892618 1.57651e-07 271.894 
-0.83 -0.31 -2.90077 3.01449 0.00916073 0.00871944 -5.83461e-05 0.00895259 1.57993e-07 272.108 
-0.91 -0.29 -1.39499 3.48311 0.00911372 0.00870413 -8.10533e-05 0.00891919 1.57539e-07 271.873 
-0.99 -0.27 -0.158431 3.45529 0.00910076 0.00876296 -0.000108201 0.00894564 1.58157e-07 271.615 
-0.81 -0.31 -3.23641 2.98898 0.00916447 0.0087217 -5.931e-05 0.00895964 1.58075e-07 272.181 
-0.89 -0.29 -1.74697 3.49664 0.00912697 0.008709 -7.67056e-05 0.00892911 1.57677e-07 271.939 
-0.97 -0.27 -0.508354 3.42682 0.00910283 0.00873903 -0.000102394 0.00893632 1.5784e-07 271.877 
-0.79 -0.31 -3.73603 2.73222 0.00916836 0.00872869 -5.69674e-05 0.00895852 1.58242e-07 271.86 
-0.87 -0.29 -2.05414 3.51077 0.00914082 0.00871185 -6.62478e-05 0.00893981 1.57891e-07 271.896 
-0.95 -0.27 -0.649847 3.62883 0.00910489 0.00871954 -9.82867e-05 0.00892483 1.57596e-07 271.947 
-0.77 -0.31 -4.18874 2.83213 0.00916975 0.00873992 -5.19071e-05 0.00895684 1.58232e-07 271.825 
-0.85 -0.29 -2.60189 3.36281 0.00914707 0.00871205 -6.71129e-05 0.00894062 1.57877e-07 271.943 
-0.93 -0.27 -1.03224 3.61055 0.00911191 0.00871135 -9.22612e-05 0.00892151 1.57448e-07 272.102 
-0.95 -0.33 -0.732398 2.5933 0.00912065 0.0087324 -7.50314e-05 0.00893942 1.57858e-07 271.94 
-0.93 -0.33 -1.13617 2.61066 0.00913122 0.00873696 -6.80078e-05 0.00894171 1.57802e-07 272.105 
-0.89 -0.33 -1.99532 2.78328 0.00914705 0.0087149 -5.95469e-05 0.00893932 1.57788e-07 272.057 
-0.83 -0.33 -2.91782 2.60993 0.00914943 0.00871303 -5.48416e-05 0.00894522 1.57977e-07 271.911 
-0.75 -0.31 -4.54233 2.79158 0.00917289 0.00875411 -4.85206e-05 0.00897386 1.58457e-07 271.956 
-0.75 -0.27 -4.5083 3.6618 0.00918693 0.00875179 -6.63804e-05 0.0089795 1.586e-07 271.881 
-0.75 -0.25 -4.37615 3.76206 0.00917608 0.00874857 -7.10767e-05 0.00896943 1.58467e-07 271.804 
-0.75 -0.19 -4.518 4.99177 0.00917137 0.00873925 -9.15877e-05 0.00896762 1.58461e-07 271.76 
-0.79 -0.33 -3.60076 2.38999 0.00915918 0.00873036 -5.32471e-05 0.00895519 1.58224e-07 271.79 
-0.75 -0.33 -4.24762 2.51844 0.00917667 0.00875978 -4.03654e-05 0.00897524 1.58542e-07 271.852 
-0.81 -0.17 -3.51419 5.50722 0.00912678 0.00869497 -0.000113554 0.00892302 1.57777e-07 271.58 
-0.79 -0.17 -3.85272 5.59295 0.00913972 0.00872782 -0.000115041 0.00894987 1.5813e-07 271.789 
-0.75 -0.17 -4.42494 5.42972 0.00916479 0.00874072 -0.00010362 0.00896228 1.58297e-07 271.879 
-0.73 -0.31 -4.86902 2.92842 0.00919021 0.00877642 -4.97023e-05 0.0089949 1.58784e-07 272.031 
-0.73 -0.29 -4.77682 3.19423 0.00918517 0.00877213 -5.49115e-05 0.00898959 1.58783e-07 271.874 
-0.73 -0.27 -4.92679 3.34767 0.00919734 0.00877703 -6.51055e-05 0.00899849 1.58847e-07 272.033 
-0.73 -0.25 -4.62217 3.82152 0.00918158 0.00877157 -6.75243e-05 0.00898676 1.58785e-07 271.784 
-0.73 -0.23 -4.86896 4.20403 0.0091867 0.00877136 -7.64174e-05 0.00898873 1.58834e-07 271.761 
-0.73 -0.21 -4.87787 4.42442 0.00917746 0.00876342 -9.25185e-05 0.00898411 1.58647e-07 271.939 
-0.73 -0.19 -4.90024 4.71041 0.00917349 0.00877288 -9.88714e-05 0.00898098 1.58595e-07 271.934 
-0.79 -0.05 -3.39133 7.65819 0.00905903 0.00872002 -0.000152594 0.00890407 1.57418e-07 271.622 
-0.87 -0.03 -2.17915 8.26829 0.00900264 0.00863078 -0.00017444 0.00883533 1.56375e-07 271.323 
-0.83 -0.05 -2.70916 7.99815 0.00903618 0.00868144 -0.000152696 0.00888207 1.57102e-07 271.495 
-0.91 -0.03 -1.54444 8.33051 0.00899314 0.00862475 -0.000188193 0.00883269 1.56248e-07 271.462 
-0.81 -0.05 -2.96642 7.61386 0.00905205 0.00869733 -0.000147313 0.00889619 1.57352e-07 271.494 
-0.89 -0.03 -1.83476 8.23936 0.00899949 0.00863198 -0.000176595 0.0088353 1.56359e-07 271.35 
-0.77 -0.05 -3.73401 7.29827 0.00906427 0.00872153 -0.000156345 0.00891048 1.57524e-07 271.634 
-0.85 -0.03 -2.49991 8.17855 0.00900852 0.00864645 -0.000173619 0.00885098 1.56605e-07 271.405 
-0.75 -0.05 -4.00165 7.10753 0.00906948 0.00874938 -0.000157525 0.00892218 1.57657e-07 271.762 
-0.83 -0.03 -2.70237 8.3165 0.00902495 0.00867075 -0.000164022 0.00886964 1.5693e-07 271.412 
-0.81 -0.03 -3.12066 7.90087 0.00903406 0.00869556 -0.000158809 0.00888143 1.57094e-07 271.49 
-0.79 -0.03 -3.21081 8.06279 0.0090445 0.00872149 -0.000158381 0.0088994 1.57431e-07 271.457 
-0.77 -0.03 -3.65962 7.59555 0.00905175 0.00872415 -0.000160116 0.00890158 1.57429e-07 271.527 
-0.95 -0.17 -0.703793 5.24875 0.00908255 0.00869921 -0.000142688 0.00890207 1.57418e-07 271.561 
-0.99 -0.15 -0.144436 4.99172 0.00903757 0.0087064 -0.000172908 0.00889059 1.57173e-07 271.633 
-0.89 -0.17 -2.05361 5.86069 0.00910559 0.0086751 -0.000124965 0.00890812 1.57365e-07 271.837 
-0.97 -0.15 -0.501114 5.42299 0.00906187 0.00870303 -0.000166502 0.00889437 1.57224e-07 271.662 
-0.95 -0.15 -0.856523 5.66562 0.00907296 0.00868593 -0.000151845 0.00888989 1.57179e-07 271.602 
-0.93 -0.15 -1.17128 6.07112 0.00907691 0.00867209 -0.000140335 0.00888963 1.5728e-07 271.419 
-0.83 -0.17 -3.07325 5.61437 0.00912695 0.00870024 -0.000108446 0.00892995 1.5779e-07 271.77 
-0.91 -0.15 -1.47758 6.14701 0.00908834 0.00867952 -0.000138576 0.0089035 1.57399e-07 271.637 
-0.99 -0.13 -0.223014 5.35475 0.00904121 0.00870496 -0.000188553 0.00888748 1.57093e-07 271.676 
-0.89 -0.15 -1.699 6.20936 0.00908733 0.0086604 -0.00012929 0.00889181 1.57184e-07 271.651 
-0.97 -0.13 -0.526974 5.81343 0.00904717 0.00868559 -0.00017497 0.00888319 1.57121e-07 271.497 
-0.87 -0.15 -2.34946 6.12983 0.00909855 0.00868047 -0.000125858 0.00891063 1.57421e-07 271.817 
-0.95 -0.13 -0.99924 6.06087 0.00905932 0.00867169 -0.000163627 0.0088814 1.5714e-07 271.41 
-0.77 -0.17 -4.17296 5.30863 0.00915318 0.00872456 -0.000104133 0.0089562 1.58234e-07 271.803 
-0.85 -0.15 -2.68441 6.25174 0.00911542 0.00867677 -0.000118101 0.00891309 1.57631e-07 271.53 
-0.93 -0.13 -1.21534 6.19578 0.00907951 0.00867233 -0.000155509 0.00889577 1.57249e-07 271.659 
-0.83 -0.15 -2.99823 5.98907 0.00912486 0.00869295 -0.000116916 0.00892418 1.57772e-07 271.625 
-0.91 -0.13 -1.54213 6.48136 0.00908301 0.00866256 -0.000145121 0.00889184 1.57232e-07 271.569 
-0.99 -0.11 -0.0996958 5.65878 0.00904201 0.00869548 -0.000187482 0.00888382 1.56991e-07 271.741 
-0.81 -0.15 -3.4143 5.89955 0.00913166 0.00870737 -0.000118438 0.00893241 1.57928e-07 271.606 
-0.89 -0.13 -1.94838 6.65201 0.00908991 0.00866542 -0.00013356 0.00889367 1.57266e-07 271.567 
-0.97 -0.11 -0.524294 6.21239 0.00903695 0.0086755 -0.000180265 0.00887608 1.56992e-07 271.502 
-0.79 -0.15 -3.76371 5.84026 0.00913149 0.00872074 -0.000121393 0.00894371 1.58131e-07 271.6 
-0.87 -0.13 -2.31827 6.70542 0.00909459 0.00866864 -0.000135113 0.00889914 1.5742e-07 271.467 
-0.95 -0.11 -0.791562 6.3481 0.00904439 0.0086669 -0.000175752 0.00887281 1.57081e-07 271.248 
-0.77 -0.15 -4.12907 5.68262 0.0091331 0.00872013 -0.000116654 0.00894213 1.58125e-07 271.563 
-0.85 -0.13 -2.69843 6.4059 0.0091004 0.00867384 -0.000128246 0.00890269 1.57467e-07 271.496 
-0.93 -0.11 -1.28001 6.68658 0.00905246 0.00865853 -0.000166531 0.00887294 1.57023e-07 271.352 
-0.75 -0.15 -4.3993 5.54642 0.0091425 0.00874271 -0.000112974 0.00895432 1.58297e-07 271.637 
-0.83 -0.13 -2.99059 6.37683 0.0091115 0.00869157 -0.000129186 0.00891751 1.57542e-07 271.817 
-0.91 -0.11 -1.66333 6.84993 0.00906001 0.00864943 -0.000152488 0.00887511 1.57015e-07 271.432 
-0.99 -0.09 -0.111055 5.88752 0.00900631 0.00868485 -0.00019916 0.00885957 1.56749e-07 271.418 
-0.81 -0.13 -3.45531 6.36315 0.00911361 0.00870445 -0.000121664 0.0089271 1.57866e-07 271.552 
-0.89 -0.11 -2.00158 7.03016 0.0090746 0.00866103 -0.000144846 0.00888643 1.57266e-07 271.345 
-0.97 -0.09 -0.330049 6.68116 0.00902877 0.00866737 -0.00018962 0.00886693 1.56819e-07 271.522 
-0.79 -0.13 -3.77114 6.22767 0.00912167 0.00871774 -0.000119364 0.00893536 1.57942e-07 271.672 
-0.87 -0.11 -2.24976 6.98462 0.00908295 0.00866436 -0.000139791 0.00889324 1.57328e-07 271.446 
-0.95 -0.09 -0.806315 6.73271 0.00903762 0.00865976 -0.000179828 0.00887175 1.56851e-07 271.615 
-0.77 -0.13 -4.02856 6.01029 0.00912297 0.00871627 -0.000119111 0.00893259 1.57987e-07 271.51 
-0.85 -0.11 -2.62517 6.842 0.00908588 0.00867313 -0.00013325 0.00889486 1.5742e-07 271.337 
-0.93 -0.09 -1.12247 6.961 0.00904127 0.00864786 -0.000172567 0.00886862 1.56966e-07 271.319 
-0.83 -0.11 -3.11545 6.79596 0.00908588 0.00868427 -0.000130237 0.00890399 1.57508e-07 271.464 
-0.91 -0.09 -1.43478 7.24298 0.00904461 0.00863979 -0.000161434 0.00886082 1.56859e-07 271.265 
-0.99 -0.07 -0.211379 6.16177 0.00900568 0.00867875 -0.000204842 0.00885867 1.56699e-07 271.476 
-0.81 -0.11 -3.38463 6.58025 0.00909612 0.00870621 -0.000131079 0.00891946 1.57533e-07 271.892 
-0.89 -0.09 -1.87359 7.38842 0.00905558 0.0086535 -0.000158477 0.00887465 1.57061e-07 271.339 
-0.97 -0.07 -0.509659 6.95427 0.00899916 0.008655 -0.000201748 0.00884579 1.56476e-07 271.468 
-0.79 -0.11 -3.64787 6.60267 0.00910373 0.00871245 -0.000130456 0.0089264 1.57844e-07 271.567 
-0.87 -0.09 -2.10539 7.1965 0.00906918 0.00865765 -0.00014787 0.00888499 1.57264e-07 271.306 
-0.95 -0.07 -0.746447 7.17401 0.00900074 0.00865166 -0.000187122 0.00885028 1.56521e-07 271.527 
-0.77 -0.11 -4.02692 6.21046 0.00912133 0.00871608 -0.000132719 0.00893346 1.57959e-07 271.584 
-0.85 -0.09 -2.40168 7.23819 0.00907808 0.00866873 -0.00014216 0.00889048 1.5727e-07 271.462 
-0.93 -0.07 -1.25216 7.39478 0.00901303 0.00863581 -0.000179338 0.00885126 1.56657e-07 271.323 
-0.75 -0.11 -4.40056 6.09865 0.00913572 0.00874962 -0.000130231 0.00895651 1.58312e-07 271.679 
-0.83 -0.09 -2.72143 7.21716 0.00908557 0.00868128 -0.000137024 0.008902 1.57427e-07 271.543 
-0.91 -0.07 -1.60059 7.5859 0.00902758 0.00863648 -0.000173534 0.00885735 1.5669e-07 271.451 
-0.99 -0.05 -0.145628 6.5979 0.00898146 0.00866834 -0.000214206 0.00884115 1.56413e-07 271.435 
-0.81 -0.09 -3.24709 6.982 0.00909427 0.00870901 -0.000139544 0.00891765 1.57673e-07 271.596 
-0.89 -0.07 -1.88368 7.66286 0.00903609 0.00864603 -0.000167558 0.00886662 1.56932e-07 271.316 
-0.97 -0.05 -0.57621 7.13493 0.00899687 0.00864813 -0.0002029 0.00884601 1.5652e-07 271.398 
-0.79 -0.09 -3.67311 6.89375 0.0090958 0.00871298 -0.000137193 0.00891859 1.5771e-07 271.561 
-0.87 -0.07 -2.27962 7.58034 0.0090401 0.00864453 -0.000156518 0.00886259 1.56762e-07 271.487 
-0.95 -0.05 -0.851303 7.59547 0.00900491 0.00864152 -0.000195283 0.00884575 1.56487e-07 271.447 
-0.77 -0.09 -4.02772 6.67625 0.00909466 0.00871767 -0.000135516 0.00892152 1.57757e-07 271.57 
-0.85 -0.07 -2.50679 7.48102 0.00904826 0.00865889 -0.000149246 0.00887682 1.56986e-07 271.535 
-0.93 -0.05 -1.21696 7.83324 0.009003 0.00862725 -0.000182026 0.00884132 1.5648e-07 271.324 
-0.75 -0.09 -4.35542 6.50506 0.00909382 0.00874611 -0.000143833 0.00893444 1.57935e-07 271.656 
-0.83 -0.07 -3.00125 7.74234 0.00905917 0.00868731 -0.000145271 0.00889054 1.57095e-07 271.767 
-0.91 -0.05 -1.59154 7.93986 0.00900451 0.00863026 -0.000176867 0.00884188 1.56477e-07 271.347 
-0.99 -0.03 -0.224278 6.99307 0.0089562 0.00865206 -0.0002261 0.00882155 1.56092e-07 271.39 
-0.81 -0.07 -3.27762 7.39604 0.00905852 0.0087005 -0.000144435 0.00889885 1.57316e-07 271.639 
-0.89 -0.05 -1.83457 7.97857 0.00900619 0.00863716 -0.000173774 0.00884618 1.56579e-07 271.301 