ITEM: TIMESTEP
867500
ITEM: NUMBER OF CELLS
5000
ITEM: BOX BOUNDS ss ss pp
-1 1
-0.5 0.5
-0.5 0.5
ITEM: CELLS xc yc f_U[*] f_V[*] f_Tau[1] f_Tau[2] f_Tau[3] f_Press[*] f_Mrho[*] f_Ttra[*] 
-0.99 -0.49 -0.142137 0.281199 0.00898997 0.00875517 -3.03291e-05 0.00888114 1.56577e-07 272.377 
-0.97 -0.49 -0.667598 0.0382819 0.00897814 0.00876905 -3.50532e-05 0.00888019 1.56614e-07 272.285 
-0.95 -0.49 -0.70347 0.0679317 0.00898483 0.00874468 -3.28227e-05 0.00887884 1.56763e-07 271.984 
-0.93 -0.49 -0.898333 0.126818 0.00899973 0.00875556 -3.35876e-05 0.00889401 1.56982e-07 272.069 
-0.91 -0.49 -1.26103 0.107571 0.00900723 0.00871942 -2.25838e-05 0.00886606 1.56723e-07 271.661 
-0.99 -0.47 -0.252219 0.545157 0.00902847 0.00877346 -2.1962e-05 0.00891711 1.5719e-07 272.414 
-0.89 -0.49 -1.69162 0.312374 0.00903793 0.0087446 -2.20713e-05 0.00889907 1.57033e-07 272.134 
-0.97 -0.47 -0.206089 0.400387 0.00902361 0.00876802 -3.97376e-05 0.00890907 1.56884e-07 272.7 
-0.87 -0.49 -1.85879 -0.102952 0.00905219 0.00876882 -5.16623e-06 0.00890949 1.57351e-07 271.902 
-0.95 -0.47 -0.612212 0.338998 0.00903141 0.0087578 -3.79215e-05 0.00890515 1.57006e-07 272.367 
-0.85 -0.49 -1.9297 0.243102 0.0090556 0.00877246 -3.5913e-06 0.00891271 1.57197e-07 272.267 
-0.93 -0.47 -1.19513 0.41213 0.00903905 0.00874465 -4.07585e-05 0.00890071 1.56968e-07 272.297 
-0.83 -0.49 -1.95252 -0.176757 0.00906484 0.0087785 -4.50737e-07 0.00892279 1.57388e-07 272.245 
-0.91 -0.47 -1.46775 0.648853 0.00904437 0.00872766 -3.34272e-05 0.00890071 1.57173e-07 271.943 
-0.99 -0.45 -0.14993 0.840299 0.00905911 0.00877936 -2.88536e-05 0.00893204 1.57551e-07 272.244 
-0.81 -0.49 -2.02522 0.29912 0.00905971 0.00877372 4.17349e-06 0.00891642 1.57248e-07 272.293 
-0.89 -0.47 -1.95382 0.614802 0.00903294 0.00873628 -3.82609e-05 0.00889303 1.5703e-07 271.956 
-0.97 -0.45 -0.600593 0.664209 0.00906908 0.00877894 -3.15379e-05 0.00893937 1.57431e-07 272.675 
-0.79 -0.49 -2.52053 0.187817 0.00905008 0.0087657 2.80896e-05 0.0089193 1.57396e-07 272.125 
-0.87 -0.47 -2.18551 0.034998 0.00904442 0.00874833 -1.97903e-05 0.0089078 1.57021e-07 272.423 
-0.95 -0.45 -0.91951 0.948153 0.00905478 0.00876535 -4.50906e-05 0.0089175 1.57162e-07 272.475 
-0.77 -0.49 -2.56546 -0.153794 0.00905741 0.00879454 3.36735e-05 0.00893639 1.57463e-07 272.53 
-0.85 -0.47 -2.19639 0.174187 0.00906604 0.00877524 -1.09488e-05 0.00892303 1.57256e-07 272.48 
-0.93 -0.45 -1.20367 0.605027 0.00905603 0.00872214 -4.79062e-05 0.00889899 1.5713e-07 271.964 
-0.83 -0.47 -2.52376 0.160732 0.00906445 0.00876425 -3.64404e-06 0.00891785 1.57211e-07 272.4 
-0.91 -0.45 -1.54592 0.984048 0.00906091 0.00873945 -3.02929e-05 0.00890412 1.57374e-07 271.7 
-0.99 -0.43 -0.286133 1.39178 0.0090789 0.00878033 -3.44291e-05 0.00894192 1.57715e-07 272.262 
-0.81 -0.47 -2.77368 0.434584 0.00907435 0.00875926 9.69469e-06 0.00892654 1.57477e-07 272.206 
-0.89 -0.45 -1.80482 0.742236 0.00906584 0.00872279 -3.62698e-05 0.00889171 1.56983e-07 271.997 
-0.97 -0.43 -0.502006 0.810253 0.00908029 0.00877961 -3.50196e-05 0.00894446 1.57541e-07 272.641 
-0.79 -0.47 -2.8919 0.391009 0.00908717 0.00875176 2.02591e-05 0.00893161 1.57504e-07 272.313 
-0.87 -0.45 -2.07077 0.444913 0.00907126 0.00874454 -3.11648e-05 0.00890886 1.56974e-07 272.537 
-0.95 -0.43 -0.777872 1.08886 0.00909722 0.0087759 -4.22328e-05 0.00894256 1.57808e-07 272.122 
-0.77 -0.47 -3.20954 0.116737 0.00909351 0.00880049 1.69598e-05 0.00895063 1.57983e-07 272.066 
-0.85 -0.45 -2.35933 0.182715 0.00907546 0.008755 -1.22373e-05 0.00892252 1.57089e-07 272.754 
-0.93 -0.43 -1.1757 1.34254 0.00909357 0.00872904 -4.20497e-05 0.00891852 1.57164e-07 272.503 
-0.75 -0.47 -3.28162 0.165865 0.00909513 0.00881048 1.7303e-05 0.00896354 1.57803e-07 272.77 
-0.83 -0.45 -2.61382 0.524277 0.00909176 0.00876275 -1.76044e-05 0.00893025 1.5747e-07 272.33 
-0.91 -0.43 -1.61089 0.994509 0.00908415 0.00872325 -3.96651e-05 0.00890195 1.57134e-07 272.048 
-0.99 -0.41 -0.205365 1.60967 0.00908874 0.00878226 -3.96811e-05 0.00894824 1.57987e-07 271.986 
-0.81 -0.45 -2.9037 0.712555 0.00910055 0.00873952 -7.48976e-06 0.00893146 1.57473e-07 272.363 
-0.89 -0.43 -1.41557 1.0214 0.00908645 0.00872704 -3.65624e-05 0.00890852 1.57213e-07 272.111 
-0.97 -0.41 -0.510756 1.19827 0.00910559 0.00878859 -5.14288e-05 0.00895143 1.577e-07 272.578 
-0.79 -0.45 -3.21118 0.740396 0.00910853 0.00875054 1.42627e-05 0.00893819 1.57765e-07 272.063 
-0.87 -0.43 -1.5726 0.664139 0.00909099 0.00873658 -3.72158e-05 0.0089172 1.57249e-07 272.314 
-0.95 -0.41 -0.786237 1.41667 0.00910483 0.00877226 -4.06537e-05 0.00894472 1.57706e-07 272.363 
-0.77 -0.45 -3.53076 0.263505 0.00912997 0.00879618 1.3729e-05 0.00896224 1.58136e-07 272.155 
-0.85 -0.43 -2.0101 0.763042 0.00910292 0.00874893 -2.97235e-05 0.00893522 1.57509e-07 272.414 
-0.93 -0.41 -1.14949 1.79748 0.00909976 0.00871601 -4.07434e-05 0.00891375 1.5732e-07 272.086 
-0.75 -0.45 -3.67947 0.224549 0.00912361 0.00881373 1.27482e-05 0.00896938 1.58533e-07 271.689 
-0.83 -0.43 -2.44641 0.936336 0.0091075 0.00875899 -1.13108e-05 0.00894152 1.57566e-07 272.508 
-0.91 -0.41 -1.32805 1.2617 0.00910883 0.00872724 -3.31942e-05 0.00892679 1.57545e-07 272.096 
-0.99 -0.39 -0.246901 2.01222 0.00909068 0.00878871 -6.1937e-05 0.00895587 1.58174e-07 271.896 
-0.81 -0.43 -3.08292 0.938681 0.00910705 0.00873091 -1.04003e-05 0.00893331 1.57664e-07 272.089 
-0.89 -0.41 -1.64865 1.0585 0.00910341 0.00873868 -3.77019e-05 0.00892923 1.57383e-07 272.45 
-0.97 -0.39 -0.690782 1.44989 0.00910444 0.00878364 -5.01512e-05 0.00895095 1.57973e-07 272.092 
-0.79 -0.43 -3.34032 0.800904 0.00912305 0.00874448 -9.30892e-06 0.00894395 1.57802e-07 272.175 
-0.87 -0.41 -2.03284 1.04819 0.00909566 0.00872466 -3.82472e-05 0.00892247 1.57301e-07 272.385 
-0.95 -0.39 -0.95141 1.55321 0.0090982 0.00875699 -3.80318e-05 0.00892884 1.57404e-07 272.401 
-0.77 -0.43 -3.53128 0.691235 0.00914147 0.00878725 1.04839e-06 0.00897225 1.58271e-07 272.227 
-0.85 -0.41 -2.41185 1.03705 0.00910284 0.00874773 -3.5371e-05 0.00894158 1.57744e-07 272.202 
-0.93 -0.39 -0.563916 1.86393 0.00910747 0.008726 -2.89409e-05 0.00892027 1.57463e-07 272.038 
-0.83 -0.41 -2.66815 1.37055 0.0091184 0.0087406 -2.69302e-05 0.00894208 1.57674e-07 272.338 
-0.91 -0.39 -1.10723 1.79727 0.0091011 0.0087206 -5.16955e-05 0.00891757 1.57371e-07 272.115 
-0.99 -0.37 0.155397 2.18628 0.00910735 0.00880618 -5.78842e-05 0.00897412 1.58588e-07 271.739 
-0.81 -0.41 -2.89151 1.40857 0.00913246 0.00873451 -1.78973e-05 0.00894822 1.57879e-07 272.171 
-0.89 -0.39 -1.6327 1.44092 0.00911197 0.00874134 -4.43992e-05 0.0089467 1.57708e-07 272.42 
-0.97 -0.37 -0.149199 1.98171 0.00910406 0.00876252 -5.2647e-05 0.00894986 1.5786e-07 272.254 
-0.79 -0.41 -3.23665 1.14872 0.00914737 0.00875311 -2.19642e-05 0.00895947 1.58174e-07 272.005 
-0.87 -0.39 -1.97241 1.34103 0.00912972 0.00872504 -4.19568e-05 0.00893864 1.57603e-07 272.357 
-0.95 -0.37 -0.634789 1.74951 0.00912145 0.00874676 -4.85404e-05 0.00893065 1.57778e-07 271.811 
-0.77 -0.41 -3.99063 1.13011 0.00915012 0.00877811 -1.97781e-05 0.00896938 1.58333e-07 272.033 
-0.85 -0.39 -2.39719 1.45925 0.00914396 0.00875165 -4.83286e-05 0.00895505 1.58191e-07 271.842 
-0.93 -0.37 -1.31244 1.99288 0.00912556 0.00873393 -4.23706e-05 0.00894318 1.57795e-07 272.163 
-0.75 -0.41 -4.25199 1.12674 0.00917077 0.00879643 -8.10856e-06 0.00899916 1.58678e-07 272.343 
-0.83 -0.39 -2.62246 1.69587 0.0091395 0.00872773 -3.98978e-05 0.0089475 1.57949e-07 272.03 
-0.91 -0.37 -1.34426 2.18867 0.00913905 0.00872831 -5.47074e-05 0.00894621 1.57745e-07 272.342 
-0.99 -0.35 -0.150614 2.1763 0.00909677 0.00879743 -7.85138e-05 0.00896622 1.58309e-07 271.978 
-0.81 -0.39 -2.86025 1.37823 0.00915309 0.00873455 -2.94609e-05 0.00895494 1.57807e-07 272.5 
-0.89 -0.37 -1.68839 1.9964 0.00914697 0.00873258 -4.9665e-05 0.00895074 1.57826e-07 272.339 
-0.97 -0.35 -0.337361 2.47561 0.00910782 0.0087497 -6.50561e-05 0.00894273 1.57957e-07 271.87 
-0.79 -0.39 -3.34298 1.91659 0.00915165 0.00874434 -2.81991e-05 0.0089622 1.58071e-07 272.266 
-0.87 -0.37 -2.29088 1.78587 0.00915523 0.0087283 -5.42602e-05 0.00894893 1.57591e-07 272.69 
-0.95 -0.35 -0.571466 2.07031 0.00911601 0.00873881 -5.37379e-05 0.00893564 1.5779e-07 271.942 
-0.77 -0.39 -3.86402 1.58031 0.00915809 0.00878458 -2.63223e-05 0.00898395 1.58552e-07 272.099 
-0.85 -0.37 -2.69343 1.75061 0.00915043 0.00874575 -4.95824e-05 0.00895457 1.58063e-07 272.047 
-0.93 -0.35 -1.05087 2.55156 0.00913129 0.00873734 -6.0288e-05 0.0089497 1.5787e-07 272.232 
-0.83 -0.37 -2.90834 1.78833 0.00914592 0.00871599 -4.13939e-05 0.00894431 1.57893e-07 272.028 
-0.91 -0.35 -1.54852 2.24545 0.00912804 0.00873531 -4.95219e-05 0.00893323 1.57616e-07 272.169 
-0.81 -0.37 -3.26165 1.67918 0.00915765 0.00872606 -3.26517e-05 0.00895793 1.58006e-07 272.247 
-0.89 -0.35 -1.71388 2.56789 0.00912913 0.00872744 -5.77146e-05 0.00893521 1.57622e-07 272.22 
-0.79 -0.37 -3.72072 2.29837 0.00916692 0.00875385 -3.30284e-05 0.00898238 1.58399e-07 272.313 
-0.87 -0.35 -2.24944 2.09488 0.00913182 0.00873368 -4.99068e-05 0.00894375 1.5781e-07 272.155 
-0.77 -0.37 -3.97106 2.37154 0.00916592 0.00877688 -2.89672e-05 0.00898084 1.58476e-07 272.135 
-0.85 -0.35 -2.51258 2.29359 0.00914715 0.00872703 -5.07699e-05 0.00894446 1.5798e-07 271.884 
-0.83 -0.35 -3.20055 2.13306 0.00916112 0.00872088 -4.52213e-05 0.0089463 1.57996e-07 271.912 
-0.81 -0.35 -3.63667 2.27666 0.00916638 0.0087228 -5.48394e-05 0.00895831 1.58118e-07 272.066 
-0.79 -0.35 -3.809 2.50663 0.00918663 0.00874241 -3.8739e-05 0.00897316 1.5834e-07 272.135 
-0.77 -0.35 -4.00803 2.61331 0.00919857 0.00877424 -2.99877e-05 0.00899387 1.58396e-07 272.667 
-0.75 -0.35 -4.22536 2.3598 0.00919487 0.00878614 -2.1198e-05 0.00900224 1.58753e-07 272.308 
-0.75 -0.49 -2.71832 0.175611 0.0090757 0.00880204 1.84181e-05 0.00894332 1.57834e-07 272.101 
-0.75 -0.43 -4.02918 0.661551 0.00915873 0.00881511 4.65293e-06 0.00899597 1.58751e-07 272.121 
-0.75 -0.39 -4.85377 1.66263 0.00916024 0.00878628 -2.3603e-05 0.00899011 1.58534e-07 272.316 
-0.75 -0.37 -4.1791 2.04894 0.00916176 0.00878388 -2.43636e-05 0.00898529 1.58252e-07 272.656 
-0.77 -0.33 -4.07432 2.74295 0.00915868 0.00875129 -4.45107e-05 0.00895577 1.58207e-07 271.837 
-0.73 -0.49 -3.02421 0.276524 0.00907955 0.00881288 1.71331e-05 0.00895734 1.58047e-07 272.159 
-0.73 -0.47 -3.18762 0.163697 0.00909544 0.00880164 2.0379e-05 0.0089641 1.58188e-07 272.121 
-0.73 -0.45 -3.7864 0.393807 0.00913101 0.00879887 1.07495e-05 0.00897941 1.58439e-07 272.154 
-0.73 -0.43 -4.76964 0.887745 0.00916303 0.00880473 1.87209e-06 0.00899682 1.58697e-07 272.239 
-0.73 -0.41 -4.72385 1.28812 0.00918382 0.00881234 7.86961e-08 0.00901214 1.58866e-07 272.413 
-0.73 -0.39 -4.74064 1.49574 0.00916994 0.00880199 -8.02125e-06 0.00900072 1.58653e-07 272.432 
-0.73 -0.37 -4.66805 1.80897 0.0091655 0.00878794 -2.69619e-05 0.00898769 1.58578e-07 272.167 
-0.73 -0.35 -4.47452 2.10268 0.00918672 0.00878955 -2.05193e-05 0.00899614 1.58714e-07 272.189 
-0.81 -0.29 -3.11204 3.46004 0.00915025 0.00871149 -6.84005e-05 0.00893611 1.58023e-07 271.555 
-0.89 -0.27 -1.92905 3.70165 0.00911545 0.00869093 -7.8622e-05 0.00891483 1.5739e-07 271.998 
-0.97 -0.25 -0.561592 3.87095 0.00909279 0.00871557 -0.000103694 0.00891223 1.57243e-07 272.173 
-0.83 -0.29 -2.96856 3.40355 0.00912918 0.00872225 -7.31316e-05 0.00893893 1.57636e-07 272.308 
-0.91 -0.27 -1.16681 3.98545 0.0091146 0.00871524 -9.18414e-05 0.00892854 1.57767e-07 271.766 
-0.99 -0.25 -0.141301 3.81122 0.00908762 0.00873234 -0.000107032 0.00892774 1.57622e-07 271.991 
-0.79 -0.29 -3.36187 3.26139 0.00917081 0.00873192 -6.04862e-05 0.0089544 1.58283e-07 271.664 
-0.87 -0.27 -2.42791 3.91652 0.00912236 0.00872002 -7.41844e-05 0.0089383 1.57824e-07 271.965 
-0.95 -0.25 -0.608379 3.94303 0.00910425 0.00873643 -0.000113718 0.00892977 1.57661e-07 271.986 
-0.77 -0.29 -3.86586 3.36163 0.009184 0.00873962 -4.42913e-05 0.00897105 1.58527e-07 271.75 
-0.85 -0.27 -2.5752 3.76403 0.00913748 0.00872214 -7.42072e-05 0.00893802 1.5785e-07 271.911 
-0.93 -0.25 -0.974641 4.04256 0.0090991 0.00870629 -0.000108104 0.00891267 1.57419e-07 271.883 
-0.75 -0.29 -4.48433 3.22569 0.0091845 0.00877022 -5.17783e-05 0.00899381 1.58757e-07 272.045 
-0.83 -0.27 -2.94654 3.61418 0.00915233 0.00873226 -7.08284e-05 0.00895348 1.582e-07 271.779 
-0.91 -0.25 -1.39954 4.32833 0.009104 0.00870824 -9.22068e-05 0.00891483 1.57522e-07 271.77 
-0.99 -0.23 -0.0342982 3.94628 0.00906417 0.00873159 -0.000119807 0.00891638 1.57439e-07 271.96 
-0.81 -0.27 -3.38979 3.79663 0.00914635 0.00871292 -8.40596e-05 0.00893421 1.57875e-07 271.753 
-0.89 -0.25 -1.87145 4.34443 0.00910816 0.00868041 -9.03699e-05 0.00891116 1.57351e-07 271.953 
-0.97 -0.23 -0.0915745 4.13893 0.00908761 0.00872699 -0.000122652 0.00892151 1.5759e-07 271.856 
-0.79 -0.27 -3.90511 3.5765 0.0091568 0.00870955 -7.67114e-05 0.00893723 1.58188e-07 271.306 
-0.87 -0.25 -2.39053 4.27169 0.00913812 0.00871273 -8.30429e-05 0.00894571 1.58008e-07 271.873 
-0.95 -0.23 -0.662344 4.19643 0.00909959 0.00872051 -0.000123903 0.00892286 1.57431e-07 272.173 
-0.77 -0.27 -4.06311 3.84876 0.00917107 0.00873955 -6.12735e-05 0.00896576 1.58391e-07 271.823 
-0.85 -0.25 -2.76361 4.03143 0.00915637 0.00873244 -9.48157e-05 0.00895236 1.58048e-07 272.005 
-0.93 -0.23 -1.07903 4.42472 0.00911031 0.00870844 -0.000111581 0.00892123 1.57527e-07 271.958 
-0.83 -0.25 -3.12973 4.03225 0.00916175 0.0087091 -8.52327e-05 0.00893642 1.58165e-07 271.321 
-0.91 -0.23 -1.36185 4.69465 0.00912226 0.00868773 -0.000103029 0.0089216 1.57433e-07 272.13 
-0.99 -0.21 0.035924 3.95663 0.00910733 0.00874136 -0.000131819 0.00894536 1.5812e-07 271.67 
-0.81 -0.25 -3.4538 4.17567 0.00917048 0.00872856 -7.52568e-05 0.00895927 1.58369e-07 271.664 
-0.89 -0.23 -1.89595 4.91628 0.00914189 0.0086855 -9.71746e-05 0.008932 1.57797e-07 271.819 
-0.97 -0.21 0.0297488 4.31573 0.00911286 0.00870939 -0.000132426 0.00892921 1.57757e-07 271.803 
-0.79 -0.25 -3.90861 4.20721 0.00915399 0.00869698 -7.90193e-05 0.00893199 1.58085e-07 271.325 
-0.87 -0.23 -2.34106 4.61863 0.00915262 0.00871406 -0.000111315 0.0089392 1.57973e-07 271.735 
-0.95 -0.21 -0.279506 4.64 0.00911387 0.008715 -0.000123403 0.00893076 1.57518e-07 272.262 
-0.77 -0.25 -4.45099 3.89863 0.00915867 0.00872747 -8.42915e-05 0.00894464 1.5802e-07 271.82 
-0.85 -0.23 -2.78467 4.68034 0.00914629 0.00872382 -9.10051e-05 0.00894099 1.57902e-07 271.912 
-0.93 -0.21 -0.967498 4.92003 0.00911826 0.0087031 -0.000119618 0.00891794 1.57501e-07 271.902 
-0.83 -0.23 -3.17454 4.27505 0.0091394 0.00870473 -8.49487e-05 0.00892903 1.57787e-07 271.747 
-0.91 -0.21 -1.38121 5.05549 0.00912803 0.00868425 -0.000118118 0.00892151 1.57655e-07 271.744 
-0.99 -0.19 -0.146075 4.1409 0.00908931 0.00874169 -0.000142521 0.00893505 1.57911e-07 271.717 
-0.81 -0.23 -3.54826 4.19101 0.00915208 0.00871583 -8.97967e-05 0.00895083 1.58035e-07 271.983 
-0.89 -0.21 -1.64393 5.37753 0.00914483 0.00869557 -0.000114723 0.00894579 1.57992e-07 271.903 
-0.97 -0.19 -0.762315 4.64456 0.00909972 0.00870107 -0.000143494 0.00890357 1.57619e-07 271.261 
-0.79 -0.23 -3.62673 4.7417 0.00917908 0.00870936 -8.26015e-05 0.00895128 1.58136e-07 271.822 
-0.87 -0.21 -2.03963 5.02273 0.00914204 0.00869075 -0.000111686 0.00893327 1.58035e-07 271.449 
-0.95 -0.19 -0.860331 4.94827 0.00910726 0.00871617 -0.000124802 0.00891146 1.57458e-07 271.779 
-0.77 -0.23 -3.99923 4.38241 0.00918365 0.00873129 -9.0231e-05 0.00896722 1.58274e-07 272.068 
-0.85 -0.21 -2.79958 5.14526 0.00915702 0.00871236 -8.95826e-05 0.00894862 1.57977e-07 272.015 
-0.93 -0.19 -0.943399 5.29432 0.00912286 0.00869766 -0.000124347 0.00892594 1.57802e-07 271.626 
-0.75 -0.23 -4.41967 4.02728 0.00918216 0.00875906 -9.32691e-05 0.00898462 1.58633e-07 271.979 
-0.83 -0.21 -3.36501 4.65501 0.00917917 0.00871697 -9.44079e-05 0.00896001 1.58157e-07 272.051 
-0.91 -0.19 -1.33487 5.52291 0.00912185 0.00867624 -0.000124724 0.00890687 1.57422e-07 271.699 
-0.81 -0.21 -3.70045 4.63458 0.00916991 0.00870895 -8.84267e-05 0.00895957 1.58289e-07 271.81 
-0.89 -0.19 -1.75843 5.57769 0.00912443 0.00868448 -0.000121058 0.00892233 1.57649e-07 271.779 
-0.79 -0.21 -4.0006 4.99703 0.0091634 0.00871174 -0.000101416 0.00895052 1.58213e-07 271.667 
-0.87 -0.19 -2.2182 5.58977 0.00913398 0.00868901 -0.000103492 0.00892807 1.57682e-07 271.898 
-0.77 -0.21 -4.25649 4.61446 0.00917105 0.00873122 -9.16675e-05 0.00895796 1.58284e-07 271.77 
-0.85 -0.19 -2.4118 5.5807 0.00913458 0.00869748 -0.00011256 0.00892856 1.58086e-07 271.218 
-0.75 -0.21 -4.70649 4.60941 0.00917864 0.00875226 -9.49488e-05 0.0089805 1.58516e-07 272.056 
-0.83 -0.19 -2.73584 5.27089 0.0091314 0.00871604 -0.000102569 0.00893683 1.57875e-07 271.832 
-0.81 -0.19 -3.36777 4.99317 0.00915222 0.00870329 -0.000105106 0.00893398 1.57945e-07 271.626 
-0.79 -0.19 -3.95376 5.21623 0.00917053 0.00871766 -8.94887e-05 0.00896233 1.58403e-07 271.699 
-0.77 -0.19 -4.24349 5.18298 0.00917602 0.00874004 -0.000103981 0.00896864 1.58719e-07 271.348 
-0.99 -0.33 -0.0872988 2.50174 0.00910269 0.00878334 -8.24314e-05 0.00896242 1.58101e-07 272.221 
-0.97 -0.33 -0.355137 2.54819 0.00911464 0.00874518 -8.07837e-05 0.00894531 1.57924e-07 272.005 
-0.91 -0.33 -1.19771 2.7915 0.00914605 0.00873864 -5.77712e-05 0.00894115 1.57818e-07 272.061 
-0.99 -0.31 -0.239933 2.96591 0.00908695 0.00876941 -8.57021e-05 0.00894042 1.5779e-07 272.087 
-0.97 -0.31 -0.484646 2.56615 0.0090942 0.00873808 -7.90654e-05 0.00892899 1.57737e-07 271.831 
-0.87 -0.33 -2.14184 2.64976 0.00915269 0.00873596 -6.56486e-05 0.00895386 1.5812e-07 271.928 
-0.95 -0.31 -1.08639 3.14527 0.00909845 0.00872265 -8.02493e-05 0.00892261 1.5759e-07 271.89 
-0.85 -0.33 -2.49879 2.58814 0.00915203 0.00872343 -5.97093e-05 0.00895482 1.58043e-07 272.09 
-0.93 -0.31 -1.3407 3.23586 0.00911325 0.00873238 -7.64071e-05 0.0089318 1.57734e-07 271.922 
-0.91 -0.31 -1.80565 2.9333 0.00914034 0.00872905 -6.87929e-05 0.00894411 1.57743e-07 272.28 
-0.99 -0.29 -0.0505679 3.13559 0.00905517 0.00875198 -0.000106035 0.00892059 1.57552e-07 271.893 
-0.81 -0.33 -3.45464 2.54657 0.00916267 0.00871951 -4.76449e-05 0.00895767 1.5794e-07 272.354 
-0.89 -0.31 -1.98822 3.29331 0.00915458 0.00871855 -6.48607e-05 0.00894876 1.57978e-07 272.017 
-0.97 -0.29 -0.646768 3.36981 0.00907723 0.00873006 -8.98565e-05 0.008918 1.57629e-07 271.682 
-0.87 -0.31 -2.0651 3.01606 0.00915929 0.00873297 -6.90344e-05 0.00895701 1.58248e-07 271.804 
-0.95 -0.29 -0.829796 3.48432 0.00908815 0.00871321 -9.00858e-05 0.0089152 1.57299e-07 272.166 
-0.85 -0.31 -2.73275 2.95032 0.00914966 0.00871757 -5.65456e-05 0.0089438 1.57894e-07 272.012 
-0.93 -0.29 -1.32308 3.33011 0.00910395 0.00874147 -9.24756e-05 0.00892939 1.57551e-07 272.164 
-0.83 -0.31 -2.89255 3.19827 0.00914834 0.00872523 -5.18346e-05 0.0089527 1.57807e-07 272.431 
-0.91 -0.29 -1.3929 3.46003 0.00909747 0.00871315 -8.49827e-05 0.00891815 1.57506e-07 271.898 
-0.99 -0.27 -0.120872 3.4798 0.0090792 0.00874528 -0.000110599 0.00893231 1.57827e-07 271.777 
-0.81 -0.31 -3.44467 3.02575 0.00914644 0.00871087 -5.25048e-05 0.00894317 1.57745e-07 272.249 
-0.89 -0.29 -1.63955 3.37579 0.00910879 0.00871378 -7.86754e-05 0.00892438 1.57643e-07 271.853 
-0.97 -0.27 -0.26262 3.65626 0.00907251 0.00871553 -0.00010499 0.00891304 1.57356e-07 272.002 
-0.79 -0.31 -3.81085 3.00462 0.00915027 0.0087424 -5.19336e-05 0.00895308 1.58199e-07 271.769 
-0.87 -0.29 -2.10986 3.3845 0.00910793 0.00871973 -5.27043e-05 0.0089242 1.57762e-07 271.643 
-0.95 -0.27 -0.640525 3.72395 0.00908877 0.00872426 -9.76515e-05 0.00891439 1.57478e-07 271.833 
-0.77 -0.31 -3.98853 3.08424 0.00915471 0.00874086 -4.50324e-05 0.00894707 1.5837e-07 271.293 
-0.85 -0.29 -2.61087 3.60587 0.00911827 0.00871445 -6.20085e-05 0.00893461 1.57989e-07 271.568 
-0.93 -0.27 -0.741186 3.57773 0.00909962 0.00872213 -9.94623e-05 0.00892286 1.57382e-07 272.257 
-0.95 -0.33 -0.562249 2.52139 0.00912566 0.00872514 -6.3168e-05 0.0089387 1.57771e-07 272.069 
-0.93 -0.33 -0.962722 2.97363 0.00913486 0.00873435 -5.83999e-05 0.00894378 1.57774e-07 272.218 
-0.89 -0.33 -1.80691 2.77382 0.00914643 0.00871817 -5.64934e-05 0.00893767 1.5776e-07 272.055 
-0.83 -0.33 -3.05808 2.87174 0.00915288 0.00872102 -6.04633e-05 0.00895725 1.58038e-07 272.172 
-0.75 -0.31 -4.37051 2.70822 0.00916956 0.00877025 -4.17078e-05 0.00898345 1.58619e-07 271.968 
-0.75 -0.27 -4.38978 3.89748 0.00920003 0.00876777 -6.17459e-05 0.00898733 1.58629e-07 272.068 
-0.75 -0.25 -4.50742 3.9705 0.00917368 0.00876789 -7.40488e-05 0.00897615 1.58592e-07 271.794 
-0.75 -0.19 -4.54846 4.95609 0.00916762 0.00874244 -9.85689e-05 0.00897225 1.58732e-07 271.436 
-0.79 -0.33 -3.87639 2.75201 0.00915209 0.00874001 -4.51431e-05 0.00895646 1.58092e-07 272.055 
-0.75 -0.33 -4.21919 2.28776 0.00916733 0.00877644 -2.32878e-05 0.00898447 1.58764e-07 271.751 
-0.81 -0.17 -3.54264 5.84369 0.00913225 0.00870046 -0.000108722 0.00892121 1.57685e-07 271.684 
-0.79 -0.17 -4.08909 5.62729 0.00913482 0.00872524 -0.000112925 0.00894841 1.58031e-07 271.916 
-0.75 -0.17 -4.40895 5.37299 0.00916245 0.00874469 -0.000106637 0.00896455 1.58386e-07 271.796 
-0.73 -0.31 -4.97269 2.78745 0.00918027 0.00879145 -4.51788e-05 0.00899334 1.58624e-07 272.259 
-0.73 -0.29 -4.56993 3.09539 0.00919215 0.00879303 -4.81249e-05 0.00900571 1.59187e-07 271.669 
-0.73 -0.27 -5.07435 3.19237 0.00920615 0.00879108 -6.21937e-05 0.00901035 1.59053e-07 272.038 
-0.73 -0.25 -4.549 3.61975 0.00919053 0.00878249 -6.69619e-05 0.00900154 1.5916e-07 271.589 
-0.73 -0.23 -4.85205 3.98159 0.00918282 0.00876865 -7.33225e-05 0.00898127 1.58708e-07 271.749 
-0.73 -0.21 -5.01216 4.14003 0.00919373 0.00876159 -9.29177e-05 0.00897406 1.58517e-07 271.858 
-0.73 -0.19 -4.78314 4.69015 0.00916771 0.00876857 -0.000100527 0.00897772 1.58641e-07 271.756 
-0.79 -0.05 -3.37614 7.6487 0.00904983 0.00870129 -0.000158996 0.00888907 1.57487e-07 271.045 
-0.87 -0.03 -2.37276 8.63341 0.00898736 0.00860808 -0.000182953 0.00881472 1.56121e-07 271.13 
-0.83 -0.05 -2.64521 8.3123 0.00902574 0.00869275 -0.000149509 0.0088867 1.57052e-07 271.724 
-0.91 -0.03 -1.85956 8.0884 0.00899605 0.00863555 -0.000185623 0.0088316 1.562e-07 271.512 
-0.81 -0.05 -2.91104 7.83703 0.00904047 0.00868967 -0.000137329 0.00888356 1.57464e-07 270.917 
-0.89 -0.03 -1.94956 8.55271 0.00897995 0.00863213 -0.000176491 0.00882516 1.56203e-07 271.308 
-0.77 -0.05 -3.65198 6.93745 0.00906816 0.008746 -0.000156662 0.00892188 1.57824e-07 271.465 
-0.85 -0.03 -2.48546 8.06564 0.00899439 0.00864488 -0.000175489 0.00884543 1.56582e-07 271.274 
-0.75 -0.05 -3.90307 7.04262 0.00907546 0.00876917 -0.000172155 0.00893673 1.57989e-07 271.632 
-0.83 -0.03 -2.52471 8.51181 0.00902185 0.00867795 -0.00017017 0.00887334 1.57155e-07 271.137 
-0.81 -0.03 -3.11264 8.21332 0.00903082 0.00868435 -0.000158256 0.00887827 1.57415e-07 270.84 
-0.79 -0.03 -3.11888 8.09535 0.00905408 0.00871595 -0.000157259 0.00889862 1.5744e-07 271.417 
-0.77 -0.03 -3.56904 7.25653 0.00904835 0.0087409 -0.000163872 0.00891133 1.5756e-07 271.598 
-0.95 -0.17 -0.980767 5.16628 0.00908193 0.00870665 -0.000152283 0.00889917 1.57485e-07 271.356 
-0.99 -0.15 -0.200868 4.77829 0.00904765 0.00871568 -0.000170473 0.00890153 1.57234e-07 271.863 
-0.89 -0.17 -1.71388 5.81698 0.0091186 0.00867277 -0.000122328 0.00890671 1.57159e-07 272.151 
-0.97 -0.15 -0.550866 5.43447 0.00907088 0.0087102 -0.000168479 0.00890489 1.57359e-07 271.748 
-0.95 -0.15 -0.90601 5.56589 0.00907968 0.0086911 -0.000156614 0.00890044 1.57415e-07 271.516 
-0.93 -0.15 -1.22512 5.71214 0.00908052 0.00866992 -0.000141052 0.00889994 1.57375e-07 271.57 
-0.83 -0.17 -2.88046 5.69657 0.00913755 0.00871356 -9.98344e-05 0.00894159 1.5804e-07 271.692 
-0.91 -0.15 -1.60072 6.2853 0.00908509 0.00868182 -0.000147417 0.00889984 1.57437e-07 271.46 
-0.99 -0.13 -0.259889 5.15898 0.00905479 0.00872161 -0.000188942 0.00890094 1.57443e-07 271.482 
-0.89 -0.15 -1.57242 6.03249 0.0090875 0.00865635 -0.000125753 0.00888755 1.57165e-07 271.553 
-0.97 -0.13 -0.52222 5.84876 0.00906166 0.0086948 -0.000161375 0.00888699 1.57114e-07 271.625 
-0.87 -0.15 -2.02683 6.26109 0.00909964 0.00868748 -0.000123242 0.00891731 1.57327e-07 272.182 
-0.95 -0.13 -0.877266 6.15098 0.00906421 0.00867643 -0.000161658 0.00888652 1.57388e-07 271.138 
-0.77 -0.17 -4.27304 5.13248 0.0091515 0.00873164 -0.000105464 0.00895304 1.58427e-07 271.376 
-0.85 -0.15 -2.39747 6.41052 0.00910491 0.00868026 -0.000109473 0.00891342 1.57566e-07 271.651 
-0.93 -0.13 -1.3332 5.94582 0.00907747 0.00867369 -0.000157049 0.00889758 1.57167e-07 271.858 
-0.83 -0.15 -2.91307 6.1169 0.00912165 0.00870953 -0.000118551 0.00893432 1.57935e-07 271.652 
-0.91 -0.13 -1.7193 6.60401 0.00908747 0.00867362 -0.000149377 0.00890106 1.57325e-07 271.69 
-0.99 -0.11 -0.162908 5.53157 0.00904105 0.00869982 -0.000179156 0.0088879 1.57108e-07 271.664 
-0.81 -0.15 -3.22983 6.35802 0.00913338 0.00871425 -0.000109084 0.00894115 1.57817e-07 272.063 
-0.89 -0.13 -2.11261 6.09932 0.00910054 0.00864657 -0.000139649 0.00889392 1.57473e-07 271.218 
-0.97 -0.11 -0.584467 6.1626 0.00904008 0.00868423 -0.000179333 0.00887873 1.57049e-07 271.485 
-0.79 -0.15 -3.64635 5.91126 0.00913519 0.00872352 -0.000122357 0.00894387 1.58113e-07 271.636 
-0.87 -0.13 -2.57309 6.77334 0.00910577 0.00867007 -0.000128799 0.00891436 1.57644e-07 271.546 
-0.95 -0.11 -0.828817 6.37458 0.00905722 0.00867187 -0.000174624 0.00888002 1.56981e-07 271.643 
-0.77 -0.15 -4.10213 5.43835 0.00914727 0.0087282 -0.000121199 0.00894833 1.58388e-07 271.3 
-0.85 -0.13 -2.85268 6.61396 0.00912532 0.00868679 -0.000128166 0.00892457 1.5776e-07 271.657 
-0.93 -0.11 -1.17585 6.49369 0.00908044 0.00867281 -0.000171235 0.00890011 1.57413e-07 271.51 
-0.75 -0.15 -4.51688 5.68755 0.00914764 0.00874417 -0.000112189 0.00896321 1.58537e-07 271.495 
-0.83 -0.13 -3.01386 6.63632 0.00913609 0.00870155 -0.000123502 0.00894057 1.57752e-07 272.157 
-0.91 -0.11 -1.56365 6.93398 0.00908228 0.00865863 -0.000157556 0.0088775 1.5704e-07 271.463 
-0.99 -0.09 0.00521202 5.85578 0.00899281 0.00868086 -0.000206451 0.00885297 1.56518e-07 271.615 
-0.81 -0.13 -3.43496 6.68294 0.00912125 0.00870825 -0.00011292 0.00892983 1.57913e-07 271.554 
-0.89 -0.11 -1.88114 6.81342 0.00908681 0.00864207 -0.000147909 0.00887655 1.57274e-07 271.029 
-0.97 -0.09 -0.530209 6.75472 0.00902366 0.00868246 -0.000197105 0.00887853 1.57171e-07 271.267 
-0.79 -0.13 -3.43263 6.26537 0.00913283 0.00873585 -0.00012423 0.00894869 1.58036e-07 271.914 
-0.87 -0.11 -2.41443 7.12015 0.00909392 0.00865775 -0.000148302 0.00889786 1.57686e-07 270.971 
-0.95 -0.09 -0.987251 6.54082 0.00904013 0.00867568 -0.000184121 0.00888045 1.57212e-07 271.256 
-0.77 -0.13 -3.86375 5.92655 0.00912585 0.00871452 -0.000123662 0.00893351 1.5793e-07 271.636 
-0.85 -0.11 -2.65185 6.85111 0.00910337 0.00868579 -0.000129613 0.00890568 1.57598e-07 271.36 
-0.93 -0.09 -1.01703 6.74325 0.00903191 0.00865246 -0.000180712 0.0088628 1.57002e-07 271.078 
-0.83 -0.11 -3.10564 7.23824 0.00909357 0.00868657 -0.000128596 0.00890989 1.57505e-07 271.649 
-0.91 -0.09 -1.25524 7.26725 0.00903008 0.00864189 -0.000153949 0.00885838 1.56857e-07 271.195 
-0.99 -0.07 -0.530631 6.32039 0.00899835 0.00867378 -0.00020839 0.00885115 1.56547e-07 271.51 
-0.81 -0.11 -3.40568 6.58609 0.00913012 0.0087145 -0.000130043 0.00893852 1.57829e-07 271.962 
-0.89 -0.09 -2.05932 7.42224 0.00904068 0.00864579 -0.000164418 0.00885838 1.57014e-07 270.923 
-0.97 -0.07 -0.659314 6.94718 0.00898826 0.00866945 -0.000206225 0.00885413 1.56669e-07 271.389 
-0.79 -0.11 -3.56096 6.47952 0.00913238 0.00872338 -0.000120892 0.00894558 1.58235e-07 271.478 
-0.87 -0.09 -2.34855 7.50867 0.00906368 0.00864816 -0.000158621 0.00887596 1.57347e-07 270.886 
-0.95 -0.07 -0.727461 6.75487 0.00899281 0.00867412 -0.000186474 0.00885172 1.56456e-07 271.685 
-0.77 -0.11 -3.96964 6.26562 0.0091342 0.00872057 -0.000127313 0.00894992 1.58107e-07 271.83 
-0.85 -0.09 -2.68217 7.28498 0.00907179 0.00866235 -0.000145166 0.00888283 1.57224e-07 271.308 
-0.93 -0.07 -1.22673 7.34559 0.00899396 0.00863445 -0.000180468 0.00884179 1.56492e-07 271.317 
-0.75 -0.11 -4.4653 6.24703 0.00913902 0.00875513 -0.00012644 0.00896504 1.58509e-07 271.599 
-0.83 -0.09 -3.03523 7.14038 0.0090978 0.00870518 -0.000142156 0.0089239 1.57689e-07 271.758 
-0.91 -0.07 -1.66092 7.51776 0.00901813 0.0086353 -0.00018052 0.00885334 1.5656e-07 271.555 
-0.99 -0.05 0.0519774 6.75319 0.00897736 0.00866886 -0.000216086 0.0088425 1.56413e-07 271.476 
-0.81 -0.09 -3.27883 7.1692 0.00909386 0.00871016 -0.000148922 0.008916 1.57713e-07 271.477 
-0.89 -0.07 -1.82173 7.87345 0.00904018 0.0086562 -0.000178628 0.00886593 1.5701e-07 271.161 
-0.97 -0.05 -0.500439 7.0688 0.00899734 0.00866698 -0.000209382 0.00885404 1.56681e-07 271.366 
-0.79 -0.09 -3.85574 6.8113 0.00910207 0.00871868 -0.000126086 0.0089252 1.57875e-07 271.478 
-0.87 -0.07 -2.1865 7.92807 0.00903493 0.00862702 -0.00016077 0.00885903 1.56867e-07 271.196 
-0.95 -0.05 -0.669313 7.1994 0.00899819 0.00864861 -0.000199396 0.00884604 1.56498e-07 271.438 
-0.77 -0.09 -4.06243 6.76052 0.00909846 0.00872205 -0.000119146 0.00893891 1.57964e-07 271.741 
-0.85 -0.07 -2.52032 7.65805 0.00904505 0.00865456 -0.000153315 0.00887257 1.56904e-07 271.548 
-0.93 -0.05 -1.29062 7.68567 0.00900063 0.00863395 -0.000178165 0.0088388 1.56445e-07 271.308 
-0.75 -0.09 -4.31762 6.4923 0.00908567 0.00874826 -0.000132177 0.00893745 1.58016e-07 271.608 
-0.83 -0.07 -3.03213 7.74767 0.00904943 0.00870123 -0.000146759 0.00889411 1.57125e-07 271.825 
-0.91 -0.05 -1.37517 7.88949 0.00900063 0.00863811 -0.000187092 0.00884438 1.56513e-07 271.362 
-0.99 -0.03 -0.0823231 6.97308 0.00896177 0.00866463 -0.000232267 0.00882705 1.56244e-07 271.296 
-0.81 -0.07 -3.68336 7.66347 0.00904788 0.00870588 -0.000149675 0.00889608 1.5738e-07 271.443 
-0.89 -0.05 -1.68103 8.19157 0.00900547 0.00864555 -0.000184376 0.00884638 1.5681e-07 270.908 
-0.97 -0.03 -0.404952 7.49762 0.00896614 0.00863778 -0.000217425 0.0088241 1.56291e-07 271.123 