ITEM: TIMESTEP
830500
ITEM: NUMBER OF CELLS
5000
ITEM: BOX BOUNDS ss ss pp
-1 1
-0.5 0.5
-0.5 0.5
ITEM: CELLS xc yc f_U[*] f_V[*] f_Tau[1] f_Tau[2] f_Tau[3] f_Press[*] f_Mrho[*] f_Ttra[*] 
-0.99 -0.49 -0.0822824 0.207565 0.00899217 0.00875501 -2.16271e-05 0.00888635 1.5695e-07 271.888 
-0.97 -0.49 -0.478658 0.142193 0.00897486 0.00877175 -3.45123e-05 0.00888236 1.56692e-07 272.214 
-0.95 -0.49 -0.781993 -0.0312461 0.00897975 0.0087481 -2.9395e-05 0.0088804 1.57197e-07 271.28 
-0.93 -0.49 -0.931611 0.276509 0.00899794 0.00877025 -3.06919e-05 0.00890284 1.57054e-07 272.214 
-0.91 -0.49 -1.35086 -0.00601145 0.00899849 0.00869728 -1.79266e-05 0.00886507 1.5667e-07 271.724 
-0.99 -0.47 0.0596425 0.144369 0.00901005 0.00876471 -2.0899e-05 0.00889422 1.56899e-07 272.218 
-0.89 -0.49 -1.68538 0.268958 0.00904805 0.00874245 -2.59563e-05 0.0089177 1.5713e-07 272.536 
-0.97 -0.47 0.245007 0.620289 0.00901503 0.00877142 -4.14778e-05 0.00890003 1.56729e-07 272.692 
-0.87 -0.49 -1.82913 -0.0251548 0.00905024 0.00879053 -8.64537e-06 0.00891604 1.57466e-07 271.905 
-0.95 -0.47 -0.583943 0.760057 0.00903458 0.0087646 -3.79585e-05 0.00891195 1.57317e-07 272.036 
-0.85 -0.49 -1.80881 0.309398 0.00906028 0.00879608 -2.40118e-06 0.00892453 1.57501e-07 272.103 
-0.93 -0.47 -1.31655 0.326539 0.00904245 0.0087445 -2.51871e-05 0.00890435 1.56926e-07 272.481 
-0.83 -0.49 -1.89485 0.0530644 0.00907886 0.0087986 5.12063e-06 0.00894271 1.57778e-07 272.177 
-0.91 -0.47 -1.3367 0.336731 0.00903384 0.00872989 -3.26e-05 0.00890918 1.57203e-07 272.149 
-0.99 -0.45 -0.127697 0.356166 0.00904386 0.00878074 -4.1084e-05 0.00892566 1.57472e-07 272.188 
-0.81 -0.49 -2.14555 0.243164 0.00907081 0.00878298 -9.16027e-06 0.00893159 1.57592e-07 272.161 
-0.89 -0.47 -1.92567 0.780903 0.00901435 0.00872477 -4.91986e-05 0.0088954 1.57008e-07 272.066 
-0.97 -0.45 -0.583453 0.547824 0.0090522 0.0087715 -3.58827e-05 0.00893481 1.57285e-07 272.79 
-0.79 -0.49 -2.60595 0.122849 0.00907456 0.00876261 1.58039e-05 0.00893542 1.58032e-07 271.52 
-0.87 -0.47 -2.31456 0.0655722 0.00905748 0.00877064 -2.86074e-05 0.00894036 1.57695e-07 272.249 
-0.95 -0.45 -0.381933 1.42484 0.00903334 0.00877317 -5.1661e-05 0.00892683 1.57167e-07 272.751 
-0.77 -0.49 -2.67724 -0.0843931 0.00906992 0.00879018 3.33199e-05 0.00894083 1.57682e-07 272.287 
-0.85 -0.47 -2.51071 0.133609 0.0090798 0.00879328 -1.52714e-05 0.00895474 1.5762e-07 272.818 
-0.93 -0.45 -0.823057 0.728314 0.00902624 0.00869828 -4.64282e-05 0.00888911 1.56923e-07 272.021 
-0.83 -0.47 -2.70307 0.286175 0.00908127 0.00878009 -3.28569e-06 0.00894155 1.57583e-07 272.48 
-0.91 -0.45 -1.54223 1.02808 0.00905313 0.00876284 -1.29987e-05 0.00892614 1.57789e-07 271.654 
-0.99 -0.43 -0.498707 0.889079 0.00909037 0.00877785 -4.18495e-05 0.00895464 1.57764e-07 272.565 
-0.81 -0.47 -2.68668 0.359678 0.00908716 0.00879088 4.79541e-06 0.00894716 1.57703e-07 272.442 
-0.89 -0.45 -2.01514 0.844977 0.00905511 0.00873158 -4.54735e-05 0.00889937 1.56999e-07 272.202 
-0.97 -0.43 -0.609778 0.855284 0.00909892 0.00876144 -3.27342e-05 0.00895085 1.57603e-07 272.728 
-0.79 -0.47 -2.77135 0.423201 0.00908284 0.00872559 1.45649e-05 0.00892343 1.5733e-07 272.365 
-0.87 -0.45 -1.95342 0.595041 0.00903947 0.00875453 -3.55547e-05 0.00890959 1.57181e-07 272.201 
-0.95 -0.43 -0.729159 1.11037 0.0091116 0.0087917 -3.40136e-05 0.0089576 1.58073e-07 272.122 
-0.77 -0.47 -2.78214 -0.171528 0.00909516 0.00880794 1.81081e-05 0.00896212 1.58205e-07 272.032 
-0.85 -0.45 -2.50357 0.303838 0.00903853 0.00877664 -2.60484e-05 0.00892585 1.57282e-07 272.522 
-0.93 -0.43 -1.0258 1.49198 0.00910505 0.00871465 -4.84707e-05 0.00892335 1.57469e-07 272.121 
-0.75 -0.47 -3.01109 0.0598884 0.00910343 0.00881786 1.17353e-05 0.0089747 1.57839e-07 273.047 
-0.83 -0.45 -2.52873 0.42825 0.00907275 0.00876849 -2.84307e-05 0.00892832 1.57483e-07 272.248 
-0.91 -0.43 -1.75256 1.40271 0.0090973 0.00873203 -4.36145e-05 0.0089118 1.57392e-07 271.903 
-0.99 -0.41 -0.247271 1.65389 0.00910751 0.00877852 -5.20088e-05 0.00896798 1.58113e-07 272.368 
-0.81 -0.45 -2.64143 0.577184 0.00909281 0.00876129 -6.11939e-06 0.00894227 1.57402e-07 272.814 
-0.89 -0.43 -1.48032 1.15911 0.00910894 0.00874589 -3.03775e-05 0.00892327 1.57422e-07 272.2 
-0.97 -0.41 -0.823393 1.13405 0.00911138 0.00876946 -5.99282e-05 0.00894712 1.57621e-07 272.583 
-0.79 -0.45 -3.01943 0.719609 0.0091054 0.00873538 1.22305e-05 0.00892968 1.57788e-07 271.764 
-0.87 -0.43 -1.67321 0.640593 0.00910699 0.00875026 -4.37884e-05 0.00893437 1.57671e-07 272.11 
-0.95 -0.41 -0.908219 1.39175 0.00911823 0.00876886 -3.02128e-05 0.0089436 1.57615e-07 272.487 
-0.77 -0.45 -3.38117 0.0368197 0.00912685 0.0088033 7.51228e-07 0.0089696 1.58306e-07 272.085 
-0.85 -0.43 -1.77637 0.97313 0.009109 0.00878183 -2.81357e-05 0.008953 1.57766e-07 272.512 
-0.93 -0.41 -1.39531 2.17112 0.0091092 0.00871992 -3.01373e-05 0.00892402 1.5734e-07 272.365 
-0.75 -0.45 -3.83358 0.512944 0.00912508 0.00882774 5.1144e-06 0.00898068 1.58507e-07 272.076 
-0.83 -0.43 -2.71632 0.915722 0.00908542 0.0087644 -2.59269e-05 0.00894015 1.57434e-07 272.695 
-0.91 -0.41 -1.13882 1.30007 0.00912104 0.00874594 -4.76661e-05 0.0089384 1.57784e-07 272.037 
-0.99 -0.39 -0.40315 2.23594 0.00909736 0.00876776 -5.5678e-05 0.00895013 1.57792e-07 272.38 
-0.81 -0.43 -3.27337 0.562514 0.00909361 0.00873249 -1.70349e-05 0.00894571 1.576e-07 272.577 
-0.89 -0.41 -1.5179 1.29665 0.00911561 0.00875099 -3.99468e-05 0.00893754 1.57398e-07 272.677 
-0.97 -0.39 -0.977061 1.53939 0.00909729 0.00877346 -4.1773e-05 0.00894423 1.57738e-07 272.293 
-0.79 -0.43 -3.01262 0.685651 0.00911539 0.00874855 -1.30635e-05 0.00895765 1.58063e-07 272.14 
-0.87 -0.41 -2.09742 0.931204 0.00909895 0.00873932 -2.12488e-05 0.00892923 1.57296e-07 272.601 
-0.95 -0.39 -1.23527 1.40841 0.00908264 0.00873613 -3.76304e-05 0.00891708 1.5715e-07 272.482 
-0.77 -0.43 -3.33462 0.816075 0.00913749 0.00878881 -9.66686e-06 0.00898514 1.58259e-07 272.639 
-0.85 -0.41 -2.1499 1.0334 0.00911528 0.00877154 -3.93635e-05 0.00895335 1.57853e-07 272.373 
-0.93 -0.39 -0.519639 2.1035 0.0091111 0.00874606 -2.97229e-05 0.00893751 1.57478e-07 272.539 
-0.83 -0.41 -2.22494 1.56835 0.00914044 0.00875629 -2.4003e-05 0.00896379 1.57702e-07 272.951 
-0.91 -0.39 -1.15679 1.70537 0.00909625 0.00874116 -5.42571e-05 0.00892744 1.57411e-07 272.347 
-0.99 -0.37 0.0411528 2.76098 0.00910122 0.00877497 -4.6768e-05 0.00897019 1.58589e-07 271.619 
-0.81 -0.41 -2.42331 1.08792 0.00912935 0.00873397 -1.3164e-05 0.00895399 1.58077e-07 272.006 
-0.89 -0.39 -1.23144 1.48902 0.0090965 0.00874316 -3.18104e-05 0.00894846 1.57723e-07 272.448 
-0.97 -0.37 -0.301313 2.03677 0.00910008 0.00876206 -4.12534e-05 0.00895173 1.58008e-07 272.055 
-0.79 -0.41 -3.15194 0.703177 0.00914182 0.00876214 -2.98539e-05 0.00895807 1.58163e-07 271.982 
-0.87 -0.39 -1.31255 1.16468 0.00912249 0.00876002 -5.16901e-05 0.00895756 1.57541e-07 273.04 
-0.95 -0.37 -0.809889 1.69987 0.00912209 0.00872909 -5.20019e-05 0.00892569 1.57668e-07 271.849 
-0.77 -0.41 -4.03606 1.13173 0.00914314 0.00877635 -2.52821e-05 0.00897736 1.58383e-07 272.189 
-0.85 -0.39 -1.9399 1.3456 0.00914181 0.00876916 -5.39738e-05 0.00897717 1.58385e-07 272.18 
-0.93 -0.37 -1.33858 1.71301 0.00913493 0.00874313 -5.49017e-05 0.00895968 1.58249e-07 271.884 
-0.75 -0.41 -4.23456 1.46407 0.00916562 0.00879549 -1.06072e-05 0.00900146 1.58811e-07 272.184 
-0.83 -0.39 -2.09485 1.86641 0.00914878 0.00872595 -4.19761e-05 0.00895707 1.57985e-07 272.258 
-0.91 -0.37 -1.15143 1.96401 0.00914961 0.00874104 -3.76757e-05 0.00896621 1.57968e-07 272.565 
-0.99 -0.35 -0.0794883 2.73434 0.00906568 0.00876505 -7.29331e-05 0.00894282 1.58115e-07 271.602 
-0.81 -0.39 -2.51412 1.31215 0.00917324 0.00874524 -2.1244e-05 0.0089761 1.57864e-07 273.045 
-0.89 -0.37 -1.45108 1.71204 0.00915986 0.00873488 -4.68939e-05 0.0089563 1.57854e-07 272.46 
-0.97 -0.35 -0.0658208 2.48548 0.00909205 0.00875458 -6.62786e-05 0.008938 1.58087e-07 271.503 
-0.79 -0.39 -3.13982 1.66671 0.00916845 0.00876918 -2.94405e-05 0.00898448 1.58202e-07 272.717 
-0.87 -0.37 -2.079 1.95093 0.00917382 0.00876695 -5.12193e-05 0.0089724 1.57999e-07 272.699 
-0.95 -0.35 -0.085593 1.94099 0.00911343 0.00874052 -6.25368e-05 0.008926 1.57822e-07 271.594 
-0.77 -0.39 -3.90639 1.60571 0.00917052 0.00876971 -3.03795e-05 0.00899501 1.58866e-07 271.895 
-0.85 -0.37 -2.58291 1.7791 0.00915621 0.00876858 -5.33031e-05 0.00896802 1.58433e-07 271.819 
-0.93 -0.35 -0.849779 2.58144 0.00911992 0.00872823 -6.27139e-05 0.00893417 1.5788e-07 271.742 
-0.83 -0.37 -2.83958 1.86875 0.00914393 0.00871496 -4.29024e-05 0.00894477 1.57921e-07 271.994 
-0.91 -0.35 -1.3089 1.85721 0.00911438 0.0087405 -5.09377e-05 0.00892528 1.57604e-07 271.947 
-0.81 -0.37 -3.20458 1.56999 0.00915148 0.00873196 -3.42092e-05 0.00896047 1.57964e-07 272.398 
-0.89 -0.35 -1.70579 2.39396 0.00912849 0.00873999 -6.31502e-05 0.0089424 1.57727e-07 272.256 
-0.79 -0.37 -3.95917 2.38038 0.00916114 0.00878039 -3.33165e-05 0.00899354 1.58535e-07 272.419 
-0.87 -0.35 -2.13485 2.31122 0.00914254 0.00876293 -5.234e-05 0.00897402 1.58362e-07 272.123 
-0.77 -0.37 -4.09685 2.22117 0.00915802 0.00876789 -2.73498e-05 0.00898212 1.58481e-07 272.165 
-0.85 -0.35 -2.38408 2.4629 0.00916319 0.00875524 -5.38617e-05 0.00897982 1.5855e-07 271.977 
-0.83 -0.35 -3.07542 2.3095 0.00917743 0.00872318 -4.97163e-05 0.00896946 1.58473e-07 271.796 
-0.81 -0.35 -3.88313 2.24738 0.00919689 0.00872662 -6.12093e-05 0.00897946 1.58303e-07 272.39 
-0.79 -0.35 -3.95983 2.39115 0.00922956 0.00876719 -3.33323e-05 0.00900031 1.58671e-07 272.389 
-0.77 -0.35 -3.91808 2.40116 0.00923256 0.00878096 -2.9039e-05 0.00901314 1.5877e-07 272.608 
-0.75 -0.35 -4.25619 2.41272 0.00922687 0.00876568 -2.45416e-05 0.00901459 1.59166e-07 271.974 
-0.75 -0.49 -2.62858 -0.0347653 0.00907906 0.00881715 1.61173e-05 0.00895205 1.57612e-07 272.749 
-0.75 -0.43 -3.99928 0.705751 0.00915179 0.00882181 2.54308e-06 0.0089982 1.58603e-07 272.442 
-0.75 -0.39 -4.87232 1.85342 0.00917377 0.00878132 -1.0145e-05 0.00899991 1.58514e-07 272.647 
-0.75 -0.37 -3.93339 2.06477 0.00915113 0.00876523 -3.01665e-05 0.00896716 1.58187e-07 272.217 
-0.77 -0.33 -4.07873 2.56716 0.00917469 0.00875315 -3.86365e-05 0.00896055 1.58289e-07 271.84 
-0.73 -0.49 -2.77777 0.396276 0.00908464 0.00881531 1.3887e-05 0.00896234 1.57614e-07 273.058 
-0.73 -0.47 -3.32568 0.452803 0.00911846 0.00881639 7.5264e-06 0.00898611 1.58297e-07 272.601 
-0.73 -0.45 -3.87364 0.559703 0.00913265 0.00881393 4.29419e-06 0.00897385 1.58553e-07 271.791 
-0.73 -0.43 -4.78377 1.22381 0.00914586 0.00881038 4.81335e-06 0.00898917 1.58591e-07 272.19 
-0.73 -0.41 -4.5828 1.24324 0.00917264 0.00881889 1.76592e-06 0.00901172 1.58828e-07 272.465 
-0.73 -0.39 -4.59463 1.40781 0.00918226 0.0088012 -1.07695e-05 0.00900182 1.58443e-07 272.827 
-0.73 -0.37 -4.53333 1.57661 0.00916551 0.00880892 -2.8089e-05 0.00899475 1.5868e-07 272.207 
-0.73 -0.35 -4.27076 2.17424 0.00921801 0.00881385 -2.10344e-05 0.00902298 1.59025e-07 272.468 
-0.81 -0.29 -3.10581 3.63379 0.00916254 0.00870106 -7.69001e-05 0.00893388 1.57601e-07 272.215 
-0.89 -0.27 -1.76668 3.81439 0.00909114 0.00868946 -9.23936e-05 0.00889725 1.57329e-07 271.568 
-0.97 -0.25 -0.517825 3.9848 0.00908271 0.0087161 -0.000106816 0.0089014 1.57317e-07 271.714 
-0.83 -0.29 -2.70375 3.37527 0.00914024 0.00872638 -7.93809e-05 0.00894199 1.57301e-07 272.981 
-0.91 -0.27 -1.23113 4.00443 0.00910489 0.00869221 -9.43452e-05 0.00891183 1.57716e-07 271.344 
-0.99 -0.25 -0.167679 3.91619 0.00907477 0.00872248 -0.000109884 0.0089167 1.57468e-07 271.92 
-0.79 -0.29 -3.58532 3.42938 0.00917879 0.00873889 -6.19885e-05 0.00895161 1.58296e-07 271.557 
-0.87 -0.27 -2.12851 3.90479 0.0091333 0.00876383 -8.4993e-05 0.00895372 1.57899e-07 272.304 
-0.95 -0.25 -0.266315 4.10644 0.00909955 0.00873847 -0.000113162 0.00893389 1.57927e-07 271.652 
-0.77 -0.29 -3.99115 3.35978 0.00918419 0.00875095 -4.8753e-05 0.00896498 1.58623e-07 271.402 
-0.85 -0.27 -2.46132 3.8323 0.0091426 0.00874134 -6.72415e-05 0.00894657 1.57908e-07 272.071 
-0.93 -0.25 -0.565404 3.99677 0.00910046 0.00869645 -0.000102831 0.00890626 1.57402e-07 271.716 
-0.75 -0.29 -4.80963 3.17899 0.00918562 0.00876045 -5.43795e-05 0.00899094 1.58703e-07 272.05 
-0.83 -0.27 -3.00195 3.51762 0.00916608 0.00874163 -7.11955e-05 0.0089684 1.58348e-07 271.977 
-0.91 -0.25 -1.36649 4.02724 0.00911893 0.00870192 -8.96985e-05 0.008918 1.57638e-07 271.668 
-0.99 -0.23 -0.0411692 4.32687 0.00905309 0.00872269 -0.000125141 0.00891627 1.57335e-07 272.137 
-0.81 -0.27 -3.17718 3.90368 0.00914772 0.00870006 -8.84622e-05 0.0089232 1.57532e-07 272.009 
-0.89 -0.25 -1.79059 4.21153 0.00911521 0.0086891 -0.000101456 0.00890767 1.57378e-07 271.801 
-0.97 -0.23 -0.228473 3.92235 0.00908646 0.00874066 -0.000134131 0.00893137 1.5807e-07 271.331 
-0.79 -0.27 -3.66493 4.02185 0.0091634 0.0087122 -7.81695e-05 0.00892452 1.57844e-07 271.51 
-0.87 -0.25 -2.27229 4.63558 0.00914427 0.00873767 -9.59376e-05 0.00895261 1.58216e-07 271.724 
-0.95 -0.23 -0.636193 4.04963 0.00909915 0.00871755 -0.000128314 0.00891801 1.57594e-07 271.742 
-0.77 -0.27 -4.04922 3.85178 0.0091783 0.00874779 -5.94721e-05 0.00895311 1.58322e-07 271.558 
-0.85 -0.25 -2.45987 4.15629 0.00916368 0.00874688 -0.00010872 0.00896138 1.58086e-07 272.215 
-0.93 -0.23 -0.902327 4.43175 0.00910281 0.00868945 -0.000112253 0.00890238 1.57457e-07 271.504 
-0.83 -0.25 -3.1001 4.24799 0.00917364 0.00871821 -8.9067e-05 0.00894662 1.58197e-07 271.575 
-0.91 -0.23 -1.26429 4.93573 0.00911127 0.00869364 -0.000101035 0.00891037 1.57328e-07 271.969 
-0.99 -0.21 0.198014 3.93283 0.00915821 0.00874624 -0.00013287 0.00897728 1.58667e-07 271.7 
-0.81 -0.25 -3.72169 4.14739 0.00917552 0.00872009 -7.08555e-05 0.0089612 1.58118e-07 272.154 
-0.89 -0.23 -2.01692 4.79576 0.00914799 0.00869967 -0.000109576 0.00893852 1.57778e-07 272.051 
-0.97 -0.21 0.324007 4.35298 0.00913772 0.00871248 -0.000132773 0.00894192 1.58174e-07 271.473 
-0.79 -0.25 -4.02503 4.6242 0.00917274 0.00869473 -9.27289e-05 0.00893942 1.58219e-07 271.319 
-0.87 -0.23 -2.36435 4.48759 0.0091588 0.00873534 -0.000126107 0.00895394 1.58337e-07 271.558 
-0.95 -0.21 -0.417514 4.64305 0.00911764 0.00870128 -0.000127989 0.00892419 1.57487e-07 272.116 
-0.77 -0.25 -4.61096 4.04736 0.00918438 0.00872041 -7.84391e-05 0.00894753 1.5823e-07 271.547 
-0.85 -0.23 -2.60696 4.93227 0.00914742 0.00874562 -9.59013e-05 0.00894927 1.57937e-07 272.104 
-0.93 -0.21 -1.09466 4.95863 0.00912459 0.00867545 -0.000112074 0.00890096 1.56977e-07 272.289 
-0.83 -0.23 -3.17393 4.47098 0.00913062 0.00869471 -9.55029e-05 0.00892462 1.57492e-07 272.121 
-0.91 -0.21 -1.27731 5.05182 0.00914748 0.00871262 -0.000127642 0.00894289 1.57852e-07 272.056 
-0.99 -0.19 -0.122829 4.21895 0.0090688 0.00871936 -0.000147886 0.00890909 1.5735e-07 271.892 
-0.81 -0.23 -3.4916 4.5565 0.00916623 0.00871613 -0.000103562 0.00896095 1.58002e-07 272.346 
-0.89 -0.21 -1.56729 5.50231 0.00915198 0.00870951 -0.000125803 0.00895658 1.57808e-07 272.549 
-0.97 -0.19 -0.640865 4.41284 0.00910373 0.00871107 -0.000142277 0.00891546 1.57792e-07 271.325 
-0.79 -0.23 -3.65804 4.94886 0.0091859 0.00870268 -8.51581e-05 0.00894796 1.58065e-07 271.843 
-0.87 -0.21 -2.22339 4.96575 0.00914413 0.00869151 -0.000117584 0.00893004 1.57874e-07 271.627 
-0.95 -0.19 -0.682197 5.30916 0.00910376 0.00869885 -0.000111732 0.00890008 1.57435e-07 271.47 
-0.77 -0.23 -3.88005 4.58094 0.0091647 0.00872388 -8.76035e-05 0.00894565 1.58185e-07 271.567 
-0.85 -0.21 -3.02316 5.28858 0.00916037 0.00873383 -9.14707e-05 0.0089541 1.58126e-07 271.925 
-0.93 -0.19 -0.729743 5.17449 0.00911144 0.00868145 -0.000128833 0.00891328 1.57657e-07 271.49 
-0.75 -0.23 -4.43988 3.80667 0.00916551 0.00875056 -8.79869e-05 0.00897295 1.58688e-07 271.533 
-0.83 -0.21 -3.43777 4.95375 0.00916416 0.00872249 -9.41942e-05 0.0089507 1.579e-07 272.211 
-0.91 -0.19 -1.19074 5.72551 0.00911505 0.00870127 -0.000127529 0.00890832 1.57465e-07 271.671 
-0.81 -0.21 -3.90435 4.65744 0.00913614 0.00869525 -9.37296e-05 0.00893181 1.57839e-07 271.742 
-0.89 -0.19 -1.58888 5.53746 0.00912228 0.00870925 -0.000119543 0.00892881 1.57663e-07 271.954 
-0.79 -0.21 -4.21051 5.1345 0.00913321 0.00869554 -9.66931e-05 0.00892648 1.58037e-07 271.238 
-0.87 -0.19 -2.0263 5.67514 0.00912272 0.00869407 -0.000116166 0.00892857 1.57877e-07 271.577 
-0.77 -0.21 -4.19977 5.15115 0.00915726 0.00873305 -8.89511e-05 0.00895667 1.5832e-07 271.669 
-0.85 -0.19 -2.39679 5.66836 0.0091159 0.00868994 -0.000110509 0.00890805 1.57952e-07 270.825 
-0.75 -0.21 -4.57306 4.32297 0.00917188 0.00874606 -0.000103829 0.00898394 1.5885e-07 271.587 
-0.83 -0.19 -2.67066 5.35691 0.00911402 0.00872663 -8.12888e-05 0.00892949 1.57677e-07 271.949 
-0.81 -0.19 -3.22521 5.09739 0.00912841 0.00870179 -0.000100584 0.00892543 1.57761e-07 271.68 
-0.79 -0.19 -3.43558 5.40647 0.00913768 0.0086958 -9.70438e-05 0.00892764 1.58209e-07 270.979 
-0.77 -0.19 -3.65556 5.16022 0.00914403 0.0087461 -0.000116444 0.00896433 1.58959e-07 270.808 
-0.99 -0.33 0.20458 2.7761 0.00908063 0.00876064 -9.27711e-05 0.00893812 1.57908e-07 271.814 
-0.97 -0.33 0.0158527 2.80444 0.00910949 0.00875683 -9.46231e-05 0.00894471 1.57896e-07 272.035 
-0.91 -0.33 -1.1833 2.80788 0.00915563 0.00873664 -6.5014e-05 0.00893486 1.57762e-07 271.966 
-0.99 -0.31 -0.128478 3.18572 0.00911726 0.00875705 -9.0298e-05 0.00894929 1.58156e-07 271.728 
-0.97 -0.31 -0.301363 2.75051 0.00910412 0.00874525 -7.81058e-05 0.00894127 1.57797e-07 272.101 
-0.87 -0.33 -2.42382 2.73097 0.00915054 0.00875166 -7.3966e-05 0.00896126 1.5853e-07 271.45 
-0.95 -0.31 -1.10085 3.22734 0.00910517 0.00871106 -8.42758e-05 0.00892428 1.5764e-07 271.855 
-0.85 -0.33 -2.58486 2.60773 0.00914897 0.00874947 -6.00292e-05 0.00897076 1.58297e-07 272.136 
-0.93 -0.31 -1.30849 3.06895 0.009128 0.00872201 -9.20789e-05 0.00892675 1.57608e-07 271.985 
-0.91 -0.31 -1.53458 3.06636 0.00916247 0.00872849 -6.67351e-05 0.0089412 1.5772e-07 272.232 
-0.99 -0.29 -0.0570451 3.17432 0.00905615 0.00874039 -0.000109403 0.00892266 1.57762e-07 271.595 
-0.81 -0.33 -3.31643 3.15083 0.00915073 0.00871346 -6.00466e-05 0.0089521 1.57742e-07 272.526 
-0.89 -0.31 -1.90382 3.35342 0.00917192 0.00874114 -6.58519e-05 0.0089625 1.58406e-07 271.699 
-0.97 -0.29 -0.42414 3.61034 0.00908926 0.00873657 -9.46788e-05 0.00891675 1.57765e-07 271.41 
-0.87 -0.31 -2.0044 3.20975 0.0091623 0.00874454 -6.5868e-05 0.00896348 1.5826e-07 271.98 
-0.95 -0.29 -0.537404 3.34265 0.009117 0.00870927 -9.19063e-05 0.0089281 1.57448e-07 272.304 
-0.85 -0.31 -2.57675 2.93702 0.00915471 0.00873732 -6.43982e-05 0.00896038 1.5808e-07 272.194 
-0.93 -0.29 -1.301 3.39188 0.00911676 0.00874068 -9.82531e-05 0.00893563 1.57764e-07 271.986 
-0.83 -0.31 -2.9829 3.20714 0.00917141 0.00873801 -6.23665e-05 0.00896591 1.57794e-07 272.856 
-0.91 -0.29 -1.56888 3.48547 0.00910131 0.00868466 -9.65133e-05 0.00890348 1.57548e-07 271.379 
-0.99 -0.27 -0.0939204 3.49106 0.00909963 0.00873593 -0.000113293 0.00893445 1.57805e-07 271.88 
-0.81 -0.31 -3.24902 3.16008 0.00916289 0.00870634 -5.6659e-05 0.00894134 1.57444e-07 272.714 
-0.89 -0.29 -1.72127 3.45116 0.00913243 0.00872898 -7.27676e-05 0.00892777 1.58055e-07 271.247 
-0.97 -0.27 -0.403304 3.91571 0.00908368 0.00872185 -0.000105793 0.00892015 1.57451e-07 272.056 
-0.79 -0.31 -3.54826 2.96572 0.00915403 0.0087518 -5.994e-05 0.00895752 1.5837e-07 271.61 
-0.87 -0.29 -2.06664 3.62827 0.00913059 0.0087435 -4.31169e-05 0.00893424 1.57984e-07 271.565 
-0.95 -0.27 -0.910417 3.84324 0.00908332 0.00871075 -9.97691e-05 0.00890387 1.5736e-07 271.716 
-0.77 -0.31 -4.03844 2.96691 0.00915816 0.00875004 -5.08585e-05 0.00895171 1.58637e-07 270.977 
-0.85 -0.29 -2.62141 3.5436 0.00915117 0.00874462 -6.877e-05 0.00895672 1.58306e-07 271.696 
-0.93 -0.27 -1.08097 3.38398 0.00910098 0.00872716 -9.38202e-05 0.00892958 1.5737e-07 272.483 
-0.95 -0.33 -0.384249 2.49075 0.00911656 0.008722 -6.99142e-05 0.00893335 1.57907e-07 271.671 
-0.93 -0.33 -0.902664 3.05432 0.00913591 0.00872694 -5.7267e-05 0.0089374 1.57653e-07 272.232 
-0.89 -0.33 -1.9151 2.73295 0.00915176 0.00874249 -5.80755e-05 0.00894541 1.57714e-07 272.371 
-0.83 -0.33 -2.94289 2.86201 0.00914125 0.00873358 -6.32383e-05 0.00895793 1.58222e-07 271.875 
-0.75 -0.31 -4.29489 2.62246 0.00917278 0.00875627 -3.77762e-05 0.00897317 1.58622e-07 271.652 
-0.75 -0.27 -4.15321 3.87371 0.00919105 0.00876575 -6.03019e-05 0.00896471 1.58297e-07 271.954 
-0.75 -0.25 -4.51662 3.80496 0.00920363 0.00877467 -5.85977e-05 0.00898574 1.58844e-07 271.651 
-0.75 -0.19 -4.20558 4.81802 0.00914255 0.00873427 -0.000101524 0.00896441 1.58708e-07 271.239 
-0.79 -0.33 -3.75147 2.49704 0.00915156 0.00876008 -4.54794e-05 0.00896053 1.58082e-07 272.196 
-0.75 -0.33 -4.15254 2.38558 0.00919002 0.0087652 -2.55105e-05 0.00898504 1.58782e-07 271.738 
-0.81 -0.17 -3.27419 5.75834 0.0091398 0.00870888 -9.77897e-05 0.00892624 1.57977e-07 271.334 
-0.79 -0.17 -4.01106 5.58586 0.00914511 0.00872774 -0.000119024 0.00895205 1.58291e-07 271.578 
-0.75 -0.17 -4.2955 5.65556 0.00916478 0.00871673 -0.000114628 0.0089556 1.58433e-07 271.444 
-0.73 -0.31 -4.84597 2.87892 0.00917364 0.00880014 -4.83224e-05 0.00899896 1.5871e-07 272.282 
-0.73 -0.29 -4.9352 2.91036 0.00919456 0.00879907 -4.56517e-05 0.00901029 1.59319e-07 271.582 
-0.73 -0.27 -4.86779 2.72394 0.00919547 0.00879018 -6.83048e-05 0.00900581 1.58876e-07 272.205 
-0.73 -0.25 -4.50959 3.4107 0.0092127 0.00878342 -6.63001e-05 0.00901199 1.59268e-07 271.72 
-0.73 -0.23 -4.65324 3.74667 0.00917935 0.00878276 -6.86729e-05 0.0089869 1.58785e-07 271.789 
-0.73 -0.21 -5.05619 3.84395 0.00918297 0.00876785 -8.46497e-05 0.00897043 1.58412e-07 271.929 
-0.73 -0.19 -4.49314 4.50506 0.0091448 0.00877091 -9.33009e-05 0.00897169 1.58484e-07 271.845 
-0.79 -0.05 -3.07997 7.6056 0.00904721 0.00870067 -0.000153759 0.00887345 1.57159e-07 271.134 
-0.87 -0.03 -2.41156 8.85787 0.009002 0.00861021 -0.000188184 0.00882848 1.56043e-07 271.69 
-0.83 -0.05 -2.60933 8.00396 0.00902502 0.00867945 -0.000140595 0.00888736 1.57053e-07 271.742 
-0.91 -0.03 -1.69663 8.40965 0.00900376 0.0086377 -0.000186317 0.00883735 1.56246e-07 271.608 
-0.81 -0.05 -2.61046 8.04591 0.009049 0.00869076 -0.000128401 0.0088869 1.57459e-07 271.027 
-0.89 -0.03 -1.83051 8.26429 0.00900296 0.00865439 -0.000170704 0.00884989 1.56403e-07 271.722 
-0.77 -0.05 -3.50371 6.97255 0.00905783 0.00873857 -0.000150724 0.00890887 1.57725e-07 271.239 
-0.85 -0.03 -2.42671 7.72462 0.00899764 0.00864494 -0.000166424 0.00884616 1.56603e-07 271.26 
-0.75 -0.05 -3.69471 6.65609 0.00906853 0.00875562 -0.000167233 0.00893189 1.57889e-07 271.658 
-0.83 -0.03 -2.40638 8.1808 0.00900911 0.00866867 -0.000167327 0.00885227 1.56856e-07 271.009 
-0.81 -0.03 -2.98435 8.16723 0.00900424 0.00868398 -0.000149422 0.00885885 1.57107e-07 270.777 
-0.79 -0.03 -3.03008 8.40556 0.0090484 0.0087179 -0.000152167 0.00889961 1.57619e-07 271.14 
-0.77 -0.03 -3.29402 7.13133 0.00903795 0.00873931 -0.000162664 0.00890182 1.57512e-07 271.391 
-0.95 -0.17 -0.766469 5.48554 0.00906729 0.00869491 -0.000150198 0.00888593 1.5733e-07 271.22 
-0.99 -0.15 -0.00404875 4.55205 0.0090533 0.00870407 -0.000162727 0.00889952 1.57206e-07 271.849 
-0.89 -0.17 -1.40346 5.83678 0.00910851 0.00869813 -0.000124699 0.00891039 1.57194e-07 272.201 
-0.97 -0.15 -0.329506 5.44864 0.00906352 0.00868434 -0.000166742 0.00888577 1.571e-07 271.612 
-0.95 -0.15 -1.1271 5.93622 0.00905355 0.00869158 -0.000162612 0.00890449 1.57592e-07 271.335 
-0.93 -0.15 -1.19308 5.50487 0.00904983 0.00866876 -0.000160205 0.00888506 1.5707e-07 271.642 
-0.83 -0.17 -2.55723 5.69699 0.0091286 0.00872519 -9.56326e-05 0.00893248 1.57872e-07 271.705 
-0.91 -0.15 -1.41707 6.38606 0.00908231 0.0086947 -0.000156129 0.00888923 1.57201e-07 271.543 
-0.99 -0.13 -0.439815 4.92402 0.009055 0.0087023 -0.000171979 0.00889792 1.57387e-07 271.488 
-0.89 -0.15 -1.48414 6.18243 0.00909579 0.00867101 -0.00012364 0.00889774 1.57256e-07 271.708 
-0.97 -0.13 -0.635302 5.8092 0.00906732 0.00868457 -0.000152929 0.00888938 1.57157e-07 271.624 
-0.87 -0.15 -1.7626 6.58519 0.00910658 0.00868866 -0.000109027 0.00892217 1.57365e-07 272.265 
-0.95 -0.13 -0.611806 6.33997 0.00908663 0.008678 -0.000172374 0.00890374 1.57354e-07 271.721 
-0.77 -0.17 -3.91872 5.34336 0.00915557 0.00873578 -0.000113759 0.00895664 1.58506e-07 271.35 
-0.85 -0.15 -2.48844 6.44034 0.00911239 0.0086712 -0.000113463 0.00890404 1.57485e-07 271.505 
-0.93 -0.13 -1.23314 6.06591 0.00910133 0.00868209 -0.000160538 0.00891578 1.57415e-07 271.985 
-0.83 -0.15 -3.27012 5.93368 0.00912512 0.0087148 -0.000116289 0.00893235 1.5804e-07 271.413 
-0.91 -0.13 -1.83657 6.48118 0.00909303 0.00867796 -0.000164007 0.00890484 1.57342e-07 271.777 
-0.99 -0.11 -0.165718 5.36419 0.00904677 0.00867753 -0.000172724 0.00887889 1.56819e-07 271.887 
-0.81 -0.15 -3.35738 6.44537 0.00913827 0.00872738 -0.000112779 0.00894532 1.58048e-07 271.792 
-0.89 -0.13 -2.51364 6.30058 0.00909948 0.00864365 -0.000141075 0.0088899 1.57462e-07 271.113 
-0.97 -0.11 -0.520627 6.0087 0.00905159 0.00870542 -0.000185152 0.00890282 1.57252e-07 271.871 
-0.79 -0.15 -3.79979 5.66104 0.00914543 0.00873688 -0.00012603 0.00894726 1.58252e-07 271.501 
-0.87 -0.13 -2.7093 6.82098 0.00910743 0.00866438 -0.00012234 0.00891601 1.57799e-07 271.329 
-0.95 -0.11 -0.626998 6.462 0.00906651 0.00866548 -0.000179274 0.0088881 1.57138e-07 271.618 
-0.77 -0.15 -4.15505 5.54498 0.00915734 0.00872835 -0.000128358 0.00895799 1.58652e-07 271.142 
-0.85 -0.13 -2.87723 7.01082 0.00913146 0.00869042 -0.000119682 0.00892233 1.57901e-07 271.346 
-0.93 -0.11 -1.21035 6.88684 0.009081 0.0086726 -0.000169876 0.0089053 1.575e-07 271.519 
-0.75 -0.15 -4.15869 5.81621 0.00913951 0.00871673 -0.000115379 0.00894226 1.58385e-07 271.121 
-0.83 -0.13 -2.89139 6.50015 0.00914399 0.00869834 -0.000130723 0.00894337 1.57866e-07 272.047 
-0.91 -0.11 -1.68168 7.02643 0.0090742 0.00867003 -0.000161242 0.00889073 1.57166e-07 271.65 
-0.99 -0.09 0.246672 5.50516 0.00900712 0.00867565 -0.000216929 0.0088501 1.56187e-07 272.104 
-0.81 -0.13 -3.32771 6.71095 0.00913597 0.00872893 -0.000115065 0.00895019 1.58362e-07 271.401 
-0.89 -0.11 -2.39662 7.26007 0.00907263 0.00863121 -0.00014173 0.00885928 1.56979e-07 271.01 
-0.97 -0.09 -0.372068 6.80459 0.00904855 0.00870397 -0.000196714 0.0088995 1.5727e-07 271.737 
-0.79 -0.13 -3.15797 6.06304 0.00913338 0.00874151 -0.000126185 0.00893981 1.57901e-07 271.878 
-0.87 -0.11 -2.97691 7.11307 0.0090773 0.00865232 -0.000133046 0.00889291 1.57577e-07 271.007 
-0.95 -0.09 -0.849165 6.61083 0.00905991 0.00867227 -0.000182133 0.00889331 1.57077e-07 271.883 
-0.77 -0.13 -3.79908 5.7622 0.00911099 0.00871008 -0.000122931 0.00892181 1.57829e-07 271.454 
-0.85 -0.11 -2.94751 6.75742 0.00910598 0.00869789 -0.000144807 0.00891295 1.57681e-07 271.44 
-0.93 -0.09 -0.867309 7.23877 0.00904299 0.00864461 -0.000179758 0.00886414 1.56859e-07 271.367 
-0.83 -0.11 -3.07298 7.15442 0.00910205 0.00868913 -0.000132787 0.00891525 1.57604e-07 271.641 
-0.91 -0.09 -1.20008 7.52248 0.00904027 0.00864196 -0.000137871 0.00886557 1.56773e-07 271.56 
-0.99 -0.07 -0.706811 6.24725 0.00901906 0.0086715 -0.000211094 0.00884989 1.564e-07 271.727 
-0.81 -0.11 -3.27882 6.14324 0.00912601 0.00871566 -0.000131529 0.00894181 1.57629e-07 272.408 
-0.89 -0.09 -1.62944 7.89749 0.00903855 0.00863723 -0.000157567 0.00885911 1.56885e-07 271.169 
-0.97 -0.07 -0.753992 6.7184 0.00899961 0.00866931 -0.000208243 0.00884654 1.56373e-07 271.67 
-0.79 -0.11 -3.47148 6.56238 0.00913219 0.00872768 -0.000116221 0.00894664 1.58179e-07 271.607 
-0.87 -0.09 -1.89586 7.61744 0.00907436 0.00865999 -0.000167015 0.0088916 1.57519e-07 271.067 
-0.95 -0.07 -0.65568 6.77799 0.00899711 0.00867412 -0.000181412 0.00885058 1.56303e-07 271.915 
-0.77 -0.11 -4.00087 6.43488 0.00912849 0.00870869 -0.000118006 0.00894375 1.58009e-07 271.811 
-0.85 -0.09 -2.12616 6.81733 0.00906321 0.00867467 -0.000153461 0.00888435 1.57403e-07 271.047 
-0.93 -0.07 -1.14358 7.69501 0.00899666 0.0086302 -0.000171507 0.00883716 1.56292e-07 271.522 
-0.75 -0.11 -4.316 5.91297 0.00913574 0.00873905 -0.000124736 0.00896071 1.58408e-07 271.641 
-0.83 -0.09 -2.68013 7.01207 0.00909078 0.00870679 -0.000146932 0.00891515 1.57629e-07 271.596 
-0.91 -0.07 -1.48142 7.66042 0.00901241 0.00862173 -0.00017239 0.0088473 1.56326e-07 271.775 
-0.99 -0.05 0.358258 6.62098 0.00895593 0.00864275 -0.000223865 0.00881321 1.55937e-07 271.404 
-0.81 -0.09 -3.14378 6.84522 0.00908816 0.00870328 -0.000144681 0.00890891 1.5774e-07 271.214 
-0.89 -0.07 -1.43707 8.04234 0.00903681 0.00866493 -0.00017291 0.00887514 1.56938e-07 271.568 
-0.97 -0.05 -0.218134 6.78335 0.00897291 0.00866787 -0.000202589 0.00883778 1.5633e-07 271.477 
-0.79 -0.09 -3.83599 6.69359 0.00909321 0.00873066 -0.000117229 0.00891501 1.57772e-07 271.345 
-0.87 -0.07 -1.88037 8.02379 0.00903375 0.00863441 -0.00016307 0.00886705 1.56958e-07 271.285 
-0.95 -0.05 -0.44551 7.37049 0.00897261 0.00864549 -0.000196614 0.0088436 1.56345e-07 271.629 
-0.77 -0.09 -3.92164 6.54425 0.00910188 0.00870905 -0.000115432 0.00892651 1.57908e-07 271.461 
-0.85 -0.07 -2.44662 7.3682 0.00905168 0.00867402 -0.000149154 0.00888603 1.56986e-07 271.818 
-0.93 -0.05 -0.953603 8.05504 0.00899019 0.00862378 -0.000173345 0.00882827 1.56342e-07 271.162 
-0.75 -0.09 -4.21591 6.45468 0.00909033 0.00874159 -0.000136825 0.00894244 1.57914e-07 271.936 
-0.83 -0.07 -2.71798 7.68257 0.00904451 0.0086927 -0.000148386 0.00889556 1.57149e-07 271.827 
-0.91 -0.05 -1.56747 8.2124 0.00900159 0.00863963 -0.000175405 0.00885289 1.56484e-07 271.673 
-0.99 -0.03 -0.115886 6.66164 0.00895061 0.00865054 -0.000221094 0.00880707 1.55888e-07 271.3 
-0.81 -0.07 -3.45413 7.70455 0.00903222 0.00869541 -0.00014775 0.00888158 1.57271e-07 271.189 
-0.89 -0.05 -1.75726 8.01299 0.0090165 0.00865989 -0.000185986 0.00886099 1.5687e-07 271.252 
-0.97 -0.03 -0.303013 7.48438 0.00895043 0.00863757 -0.000218674 0.00881682 1.56078e-07 271.269 