ITEM: TIMESTEP
911000
ITEM: NUMBER OF CELLS
5000
ITEM: BOX BOUNDS ss ss pp
-1 1
-0.5 0.5
-0.5 0.5
ITEM: CELLS xc yc f_U[*] f_V[*] f_Tau[1] f_Tau[2] f_Tau[3] f_Press[*] f_Mrho[*] f_Ttra[*] 
-0.99 -0.49 -0.232816 0.35621 0.00898815 0.00875691 -3.61246e-05 0.00888048 1.56675e-07 272.187 
-0.97 -0.49 -0.694923 0.0537812 0.00898424 0.00875989 -3.53311e-05 0.00887994 1.56697e-07 272.132 
-0.95 -0.49 -0.748303 0.067321 0.00899033 0.00875264 -3.37553e-05 0.00887911 1.56712e-07 272.081 
-0.93 -0.49 -0.980191 0.148108 0.00899758 0.00875503 -2.65737e-05 0.00888646 1.56821e-07 272.116 
-0.91 -0.49 -1.26894 0.0202667 0.00900711 0.00872905 -2.12476e-05 0.00886788 1.56712e-07 271.737 
-0.99 -0.47 -0.141451 0.633017 0.00901778 0.00877907 -2.13752e-05 0.00890821 1.57133e-07 272.24 
-0.89 -0.49 -1.59516 0.289405 0.00902734 0.00874591 -2.46435e-05 0.00889008 1.56826e-07 272.219 
-0.97 -0.47 -0.219021 0.408992 0.00901711 0.00875597 -4.19104e-05 0.00889904 1.56874e-07 272.41 
-0.87 -0.49 -1.8645 0.0315891 0.00904139 0.00876713 -1.29239e-05 0.00890063 1.57097e-07 272.072 
-0.95 -0.47 -0.658804 0.425315 0.00903119 0.00875522 -3.72038e-05 0.00890164 1.56953e-07 272.352 
-0.85 -0.49 -2.07099 0.247787 0.00904596 0.00875166 -5.05114e-06 0.00889374 1.56767e-07 272.434 
-0.93 -0.47 -0.983862 0.280518 0.00903375 0.0087457 -3.34222e-05 0.00889273 1.5685e-07 272.259 
-0.83 -0.49 -2.14813 -0.171066 0.00905588 0.00876744 2.26194e-06 0.00891412 1.57143e-07 272.404 
-0.91 -0.47 -1.31957 0.666832 0.00904247 0.00873458 -3.1282e-05 0.0088943 1.56983e-07 272.076 
-0.99 -0.45 -0.138994 0.883217 0.00905534 0.00878304 -3.40971e-05 0.008929 1.57428e-07 272.365 
-0.81 -0.49 -2.26685 0.244834 0.00906019 0.008769 8.07528e-06 0.0089236 1.57378e-07 272.287 
-0.89 -0.47 -1.8223 0.536253 0.009043 0.00874021 -3.46764e-05 0.00889241 1.56938e-07 272.096 
-0.97 -0.45 -0.342872 0.655729 0.00906448 0.00877024 -3.9063e-05 0.00892557 1.57294e-07 272.492 
-0.79 -0.49 -2.53658 0.0228677 0.00906496 0.00877709 2.17762e-05 0.00892942 1.57435e-07 272.366 
-0.87 -0.47 -2.04914 0.253569 0.00904762 0.00875049 -2.23251e-05 0.00890797 1.56923e-07 272.598 
-0.95 -0.45 -0.716819 0.835065 0.00905229 0.00874661 -4.12755e-05 0.00890408 1.5692e-07 272.484 
-0.77 -0.49 -2.54245 0.00114021 0.00907098 0.00879656 3.4129e-05 0.00894523 1.57682e-07 272.421 
-0.85 -0.47 -2.19863 0.283832 0.0090576 0.00875279 -1.29063e-05 0.00890688 1.5696e-07 272.5 
-0.93 -0.45 -1.1314 0.541713 0.00906288 0.00873606 -4.46558e-05 0.00890438 1.57142e-07 272.108 
-0.83 -0.47 -2.48154 0.112825 0.00906162 0.00875588 -8.39766e-06 0.00891632 1.57092e-07 272.56 
-0.91 -0.45 -1.31798 0.93394 0.00906585 0.00874509 -3.36869e-05 0.00890475 1.5717e-07 272.071 
-0.99 -0.43 -0.165915 1.1947 0.00908019 0.00878564 -3.91719e-05 0.00894457 1.57844e-07 272.121 
-0.81 -0.47 -2.60964 0.443069 0.00907068 0.00876128 6.98937e-07 0.00892966 1.57475e-07 272.303 
-0.89 -0.45 -1.65891 0.845998 0.00907571 0.00872794 -3.69021e-05 0.00889769 1.57122e-07 271.938 
-0.97 -0.43 -0.465762 0.910898 0.0090798 0.00876879 -3.70691e-05 0.00893392 1.57485e-07 272.417 
-0.79 -0.47 -2.92139 0.313177 0.00908412 0.00875928 1.49122e-05 0.00893716 1.57664e-07 272.206 
-0.87 -0.45 -2.0526 0.712133 0.00908102 0.00874004 -2.34317e-05 0.00891201 1.57064e-07 272.478 
-0.95 -0.43 -0.624231 0.985215 0.00908881 0.0087517 -4.48203e-05 0.0089249 1.57454e-07 272.194 
-0.77 -0.47 -3.19421 0.106696 0.00909756 0.00879478 1.87801e-05 0.00895183 1.57979e-07 272.108 
-0.85 -0.45 -2.39477 0.463993 0.00908671 0.00874462 -1.74716e-05 0.00892036 1.57225e-07 272.453 
-0.93 -0.43 -0.899619 1.13772 0.00909176 0.0087418 -4.19816e-05 0.00892089 1.57311e-07 272.321 
-0.75 -0.47 -3.29333 0.273019 0.00910307 0.00881529 2.18264e-05 0.00896603 1.57869e-07 272.731 
-0.83 -0.45 -2.62613 0.363043 0.00909619 0.00875714 -1.57152e-05 0.00893452 1.57558e-07 272.308 
-0.91 -0.43 -1.49548 1.01441 0.00908831 0.00873741 -4.45199e-05 0.00891049 1.57182e-07 272.226 
-0.99 -0.41 -0.192027 1.58271 0.00908509 0.00877809 -4.62431e-05 0.00894342 1.57886e-07 272.014 
-0.81 -0.45 -2.87556 0.763995 0.00910096 0.00874391 -1.10048e-05 0.00893337 1.57509e-07 272.359 
-0.89 -0.43 -1.43676 1.22103 0.0090819 0.00871932 -3.63513e-05 0.00890284 1.57114e-07 272.11 
-0.97 -0.41 -0.40004 1.06254 0.00910036 0.00877633 -5.08242e-05 0.00894444 1.57549e-07 272.626 
-0.79 -0.45 -3.1007 0.585403 0.00910619 0.00875259 3.58731e-06 0.00893503 1.57655e-07 272.156 
-0.87 -0.43 -1.77405 0.965315 0.00908431 0.00873515 -3.46579e-05 0.00891674 1.57276e-07 272.254 
-0.95 -0.41 -0.589068 1.37119 0.009106 0.00875755 -4.20126e-05 0.00893908 1.57672e-07 272.251 
-0.77 -0.45 -3.43113 0.40951 0.00911578 0.00878726 9.22781e-06 0.00895508 1.57878e-07 272.382 
-0.85 -0.43 -2.00023 0.81352 0.00909822 0.00873992 -2.48397e-05 0.00892318 1.57439e-07 272.168 
-0.93 -0.41 -1.17776 1.64913 0.00909504 0.00872787 -4.3209e-05 0.008919 1.57342e-07 272.209 
-0.75 -0.45 -3.73202 0.434981 0.00912113 0.00881051 1.59078e-05 0.00896607 1.58168e-07 272.215 
-0.83 -0.43 -2.41367 0.80963 0.00909994 0.00875258 -1.62549e-05 0.00893392 1.57587e-07 272.239 
-0.91 -0.41 -1.36184 1.22737 0.00910012 0.00873666 -3.5334e-05 0.00892556 1.57599e-07 271.964 
-0.99 -0.39 -0.116888 1.81804 0.00908993 0.00878574 -5.44145e-05 0.00895107 1.58043e-07 271.976 
-0.81 -0.43 -3.06919 1.0206 0.00910244 0.00873518 -1.24269e-05 0.00893291 1.57636e-07 272.125 
-0.89 -0.41 -1.80318 1.3853 0.00910251 0.00872998 -3.82897e-05 0.00892179 1.57295e-07 272.375 
-0.97 -0.39 -0.570161 1.40962 0.00909335 0.00877175 -5.09983e-05 0.00893923 1.57769e-07 272.088 
-0.79 -0.43 -3.16723 0.759534 0.00911451 0.00874452 -7.63886e-06 0.00893975 1.57761e-07 272.118 
-0.87 -0.41 -2.03545 1.27404 0.00910046 0.00872484 -3.56684e-05 0.008924 1.57272e-07 272.482 
-0.95 -0.39 -0.998615 1.60225 0.00908446 0.00874381 -4.49518e-05 0.00891895 1.57331e-07 272.227 
-0.77 -0.43 -3.45238 0.73239 0.00913257 0.00878401 3.35453e-06 0.00896905 1.58165e-07 272.311 
-0.85 -0.41 -2.45223 1.09279 0.0091006 0.00873809 -3.65298e-05 0.00893113 1.57616e-07 272.105 
-0.93 -0.39 -0.61872 1.83554 0.00909777 0.00873211 -3.59288e-05 0.00892462 1.57554e-07 272.013 
-0.83 -0.41 -2.65698 1.21757 0.00911642 0.00874046 -2.62326e-05 0.00893845 1.57728e-07 272.134 
-0.91 -0.39 -1.18905 1.85481 0.00909985 0.00873401 -4.55679e-05 0.00892582 1.57487e-07 272.165 
-0.99 -0.37 0.0958916 1.99659 0.00908812 0.00879607 -5.92871e-05 0.00895706 1.58224e-07 271.846 
-0.81 -0.41 -2.71914 1.31795 0.0091276 0.00872944 -1.66175e-05 0.00893831 1.57745e-07 272.102 
-0.89 -0.39 -1.48341 1.52429 0.00911118 0.00873388 -4.76693e-05 0.00893788 1.57624e-07 272.297 
-0.97 -0.37 -0.239129 2.09685 0.00909457 0.0087554 -5.68627e-05 0.00893925 1.57653e-07 272.289 
-0.79 -0.41 -3.18878 0.953091 0.00914121 0.00874823 -1.58543e-05 0.00895612 1.5809e-07 272.048 
-0.87 -0.39 -1.80236 1.65157 0.00912445 0.00871724 -4.09478e-05 0.00892995 1.5746e-07 272.338 
-0.95 -0.37 -0.715908 1.73264 0.00911177 0.00874272 -4.9252e-05 0.00893338 1.57714e-07 272.004 
-0.77 -0.41 -3.63613 1.23587 0.00914324 0.00877471 -2.04744e-05 0.00897066 1.58319e-07 272.096 
-0.85 -0.39 -2.16567 1.5294 0.00913945 0.00874319 -4.03002e-05 0.00894857 1.58044e-07 271.899 
-0.93 -0.37 -1.30783 1.94357 0.00912046 0.00873397 -4.92833e-05 0.0089379 1.5774e-07 272.098 
-0.75 -0.41 -3.85005 1.14696 0.00916647 0.0088015 -8.71137e-06 0.0089948 1.58665e-07 272.234 
-0.83 -0.39 -2.57153 1.47811 0.00913636 0.00872724 -3.84277e-05 0.00893976 1.57811e-07 272.031 
-0.91 -0.37 -1.32352 2.07666 0.00913902 0.00873701 -5.60233e-05 0.00894827 1.57762e-07 272.376 
-0.99 -0.35 -0.181919 1.98997 0.00910624 0.00878778 -7.55383e-05 0.00896251 1.58247e-07 271.973 
-0.81 -0.39 -2.84428 1.32483 0.00914005 0.00872755 -3.03194e-05 0.00894303 1.57724e-07 272.281 
-0.89 -0.37 -1.72275 2.04021 0.00913921 0.00872985 -4.85308e-05 0.00894396 1.57748e-07 272.268 
-0.97 -0.35 -0.378781 2.58024 0.00911118 0.00874756 -6.32286e-05 0.00894424 1.57889e-07 272.034 
-0.79 -0.39 -3.16131 1.61732 0.00914544 0.00873881 -2.60567e-05 0.00895622 1.58049e-07 272.122 
-0.87 -0.37 -2.21323 2.03613 0.00913681 0.00871502 -5.18569e-05 0.00893515 1.57557e-07 272.329 
-0.95 -0.35 -0.737546 2.05669 0.00912348 0.00873507 -6.01818e-05 0.00893814 1.57821e-07 271.965 
-0.77 -0.39 -3.68912 1.5682 0.00915754 0.00878334 -2.2171e-05 0.00898614 1.58516e-07 272.226 
-0.85 -0.37 -2.49404 1.79051 0.00913764 0.008738 -4.95683e-05 0.0089418 1.57841e-07 272.042 
-0.93 -0.35 -1.10739 2.39597 0.00913092 0.00873801 -6.3449e-05 0.00894759 1.57805e-07 272.28 
-0.83 -0.37 -2.75672 1.81549 0.00914371 0.00871603 -3.94655e-05 0.0089372 1.57827e-07 271.926 
-0.91 -0.35 -1.53716 2.4104 0.00912228 0.0087367 -5.34422e-05 0.00893373 1.57616e-07 272.184 
-0.81 -0.37 -3.17747 1.56874 0.00915494 0.00872322 -3.19639e-05 0.00895006 1.5791e-07 272.174 
-0.89 -0.35 -1.86079 2.47519 0.00912822 0.00872339 -5.54366e-05 0.00893174 1.5759e-07 272.168 
-0.79 -0.37 -3.56517 2.04607 0.0091583 0.0087416 -3.11037e-05 0.00896681 1.58328e-07 271.964 
-0.87 -0.35 -2.24243 2.23994 0.0091434 0.00872004 -5.2173e-05 0.00894032 1.57728e-07 272.191 
-0.77 -0.37 -3.84015 2.14684 0.00916459 0.00877768 -2.80878e-05 0.00897992 1.58477e-07 272.105 
-0.85 -0.35 -2.61696 2.25679 0.00915171 0.00872097 -4.93307e-05 0.00893995 1.57885e-07 271.91 
-0.83 -0.35 -3.05536 2.15541 0.00915139 0.00871657 -4.69866e-05 0.00893789 1.57866e-07 271.88 
-0.81 -0.35 -3.50323 2.1117 0.00915299 0.00872086 -4.65361e-05 0.00894751 1.57978e-07 271.979 
-0.79 -0.35 -3.74961 2.30607 0.00917458 0.00873904 -4.17797e-05 0.00896498 1.58286e-07 271.98 
-0.77 -0.35 -3.92188 2.38796 0.00918343 0.00876691 -3.36887e-05 0.00898321 1.58401e-07 272.335 
-0.75 -0.35 -4.18525 2.35909 0.00918678 0.00878437 -2.38159e-05 0.00899653 1.58744e-07 272.149 
-0.75 -0.49 -2.69614 0.162922 0.00908725 0.00881252 2.71427e-05 0.00895199 1.5788e-07 272.285 
-0.75 -0.43 -3.88522 0.806022 0.00914057 0.00880825 -4.96272e-08 0.00898517 1.58399e-07 272.397 
-0.75 -0.39 -4.5137 1.64572 0.00915683 0.0087847 -2.08654e-05 0.00898643 1.58573e-07 272.138 
-0.75 -0.37 -4.03875 2.03688 0.00916674 0.00878326 -2.10738e-05 0.00898319 1.58408e-07 272.323 
-0.77 -0.33 -4.01549 2.69392 0.00915996 0.00875383 -4.38092e-05 0.00895915 1.58289e-07 271.798 
-0.73 -0.49 -2.99873 0.1874 0.00908792 0.00882052 2.34127e-05 0.00896249 1.58148e-07 272.141 
-0.73 -0.47 -3.26447 0.171575 0.0091099 0.00881255 2.72312e-05 0.00897559 1.58237e-07 272.387 
-0.73 -0.45 -3.87608 0.244358 0.00912733 0.00880878 1.37334e-05 0.00897573 1.58352e-07 272.194 
-0.73 -0.43 -4.44933 0.81385 0.00915575 0.00880825 3.03258e-06 0.00899312 1.58587e-07 272.315 
-0.73 -0.41 -4.29827 1.11747 0.00916906 0.00880835 -3.32924e-06 0.00900172 1.58699e-07 272.384 
-0.73 -0.39 -4.60691 1.41133 0.00917034 0.00880304 -5.45198e-06 0.00899669 1.58675e-07 272.274 
-0.73 -0.37 -4.48636 1.65312 0.00916435 0.00878149 -2.36261e-05 0.00898379 1.58494e-07 272.192 
-0.73 -0.35 -4.55433 2.08997 0.00918421 0.00878076 -1.97396e-05 0.00899069 1.58601e-07 272.218 
-0.81 -0.29 -3.27293 3.37577 0.00915196 0.00871669 -6.7892e-05 0.0089439 1.58033e-07 271.775 
-0.89 -0.27 -1.76352 3.84077 0.00911936 0.00869545 -8.63669e-05 0.00892407 1.57459e-07 272.16 
-0.97 -0.25 -0.629002 3.8041 0.00909923 0.00872352 -0.000106635 0.00892087 1.57525e-07 271.949 
-0.83 -0.29 -2.99828 3.4051 0.00914497 0.00872182 -7.0265e-05 0.00894496 1.57724e-07 272.34 
-0.91 -0.27 -1.31605 3.91055 0.00912037 0.00870489 -8.72146e-05 0.00892903 1.57656e-07 271.972 
-0.99 -0.25 -0.290959 3.81866 0.00909548 0.00874431 -0.000113546 0.00892989 1.5779e-07 271.768 
-0.79 -0.29 -3.58642 3.33913 0.00916913 0.00872646 -6.34773e-05 0.00895511 1.58143e-07 271.926 
-0.87 -0.27 -2.32821 4.05865 0.00912452 0.00870645 -7.36173e-05 0.00893697 1.57803e-07 271.96 
-0.95 -0.25 -0.785528 3.91702 0.00910754 0.008729 -0.000111496 0.00893 1.57741e-07 271.854 
-0.77 -0.29 -4.01284 3.24852 0.00918671 0.00874675 -5.20585e-05 0.00897729 1.58689e-07 271.662 
-0.85 -0.27 -2.56451 3.6265 0.00913947 0.00871467 -7.25191e-05 0.0089365 1.57741e-07 272.053 
-0.93 -0.25 -1.13665 4.03077 0.00910087 0.00870673 -0.000107572 0.00891758 1.57443e-07 271.99 
-0.75 -0.29 -4.55534 3.15064 0.00918616 0.00876932 -5.42952e-05 0.00898854 1.58705e-07 271.975 
-0.83 -0.27 -2.93901 3.75682 0.00915324 0.00872654 -7.19064e-05 0.00895376 1.58124e-07 271.917 
-0.91 -0.25 -1.4809 4.24404 0.00911539 0.00869425 -9.55849e-05 0.00891366 1.57431e-07 271.891 
-0.99 -0.23 0.0457742 4.1034 0.00907265 0.00873832 -0.000125575 0.00892039 1.57542e-07 271.906 
-0.81 -0.27 -3.50885 3.73516 0.00916264 0.00872062 -8.32585e-05 0.00895278 1.58124e-07 271.888 
-0.89 -0.25 -1.97187 4.3816 0.00912915 0.00869083 -8.76436e-05 0.00892759 1.57513e-07 272.175 
-0.97 -0.23 -0.182017 4.0644 0.00909204 0.00873455 -0.000120211 0.00892716 1.577e-07 271.838 
-0.79 -0.27 -3.93775 3.72961 0.0091724 0.00870877 -7.57958e-05 0.00894633 1.5811e-07 271.717 
-0.87 -0.25 -2.20238 4.29213 0.00914725 0.00870243 -8.52555e-05 0.00894483 1.5795e-07 271.946 
-0.95 -0.23 -0.789505 4.25265 0.00909623 0.00871382 -0.000117768 0.0089195 1.5745e-07 272.036 
-0.77 -0.27 -4.19554 3.73032 0.00917735 0.008743 -6.38997e-05 0.00897343 1.58594e-07 271.708 
-0.85 -0.25 -2.56611 4.0584 0.00916095 0.00871826 -8.81117e-05 0.00894754 1.57948e-07 272.033 
-0.93 -0.23 -1.06375 4.32477 0.0091143 0.00870821 -0.000112309 0.00892602 1.57555e-07 272.054 
-0.83 -0.25 -3.00652 4.04706 0.00916127 0.00871408 -8.47648e-05 0.00894092 1.5818e-07 271.432 
-0.91 -0.23 -1.31865 4.64491 0.00911749 0.00868195 -0.000106713 0.00891935 1.57426e-07 272.074 
-0.99 -0.21 -0.0126261 4.14168 0.00909608 0.00873586 -0.000132855 0.0089309 1.57848e-07 271.698 
-0.81 -0.25 -3.21743 4.29421 0.00916449 0.00873294 -7.8426e-05 0.0089579 1.58345e-07 271.664 
-0.89 -0.23 -1.82395 4.89785 0.00912625 0.00868407 -9.94393e-05 0.00892006 1.57583e-07 271.824 
-0.97 -0.21 -0.154915 4.38546 0.00910335 0.00870893 -0.000127533 0.00892037 1.57738e-07 271.567 
-0.79 -0.25 -3.83153 4.28801 0.00915559 0.00869754 -8.05851e-05 0.00893667 1.5796e-07 271.681 
-0.87 -0.23 -2.3441 4.58279 0.00913576 0.00870576 -0.000103105 0.00893084 1.57809e-07 271.764 
-0.95 -0.21 -0.411621 4.66278 0.00911484 0.00872402 -0.000123546 0.0089316 1.57582e-07 272.177 
-0.77 -0.25 -4.32841 3.83876 0.00916245 0.00873797 -8.07396e-05 0.00895358 1.58191e-07 271.797 
-0.85 -0.23 -2.74232 4.62293 0.00913823 0.00870921 -9.0213e-05 0.00892884 1.57747e-07 271.81 
-0.93 -0.21 -1.17799 4.79794 0.00911582 0.0086975 -0.000121532 0.00891796 1.57538e-07 271.838 
-0.83 -0.23 -3.17325 4.39655 0.00913832 0.00871158 -8.17399e-05 0.00893091 1.57822e-07 271.743 
-0.91 -0.21 -1.52531 4.84728 0.00912274 0.00867721 -0.000112993 0.00891915 1.57509e-07 271.925 
-0.99 -0.19 -0.182996 4.27002 0.00907624 0.00872452 -0.000147869 0.00891593 1.57555e-07 271.747 
-0.81 -0.23 -3.59673 4.44344 0.00915078 0.00872173 -8.91303e-05 0.00894911 1.58051e-07 271.902 
-0.89 -0.21 -1.76879 5.48326 0.00913829 0.00868955 -0.000110601 0.00893711 1.57835e-07 271.909 
-0.97 -0.19 -0.598305 4.80129 0.00909227 0.00870808 -0.000144545 0.00890681 1.57636e-07 271.33 
-0.79 -0.23 -3.57823 4.79041 0.00916938 0.00870693 -8.1446e-05 0.0089474 1.5814e-07 271.697 
-0.87 -0.21 -2.12826 5.02098 0.00914032 0.0086881 -0.000110953 0.00892961 1.57888e-07 271.59 
-0.95 -0.19 -0.874627 5.08713 0.00910797 0.00872063 -0.000130328 0.00891848 1.57619e-07 271.715 
-0.77 -0.23 -3.96117 4.30211 0.00917321 0.00873837 -8.7961e-05 0.00896638 1.58386e-07 271.85 
-0.85 -0.21 -2.74785 5.05767 0.00914841 0.00869935 -9.1938e-05 0.00893745 1.5781e-07 271.963 
-0.93 -0.19 -0.901189 5.29774 0.00911617 0.00869023 -0.000121317 0.00891998 1.57732e-07 271.565 
-0.75 -0.23 -4.40703 4.00225 0.00917653 0.0087507 -8.88411e-05 0.00897649 1.58525e-07 271.919 
-0.83 -0.21 -3.20011 4.69512 0.00916364 0.00872141 -9.53103e-05 0.00895249 1.57966e-07 272.151 
-0.91 -0.19 -1.50093 5.25392 0.00911876 0.00867112 -0.000123962 0.00890672 1.57421e-07 271.698 
-0.81 -0.21 -3.47658 4.78353 0.00915677 0.00871357 -8.46844e-05 0.00895246 1.58248e-07 271.666 
-0.89 -0.19 -1.92171 5.69543 0.00912462 0.0086821 -0.000112885 0.00891733 1.57505e-07 271.876 
-0.79 -0.21 -3.81959 4.98321 0.00914953 0.00870787 -9.55889e-05 0.00894642 1.58165e-07 271.625 
-0.87 -0.19 -2.2776 5.41885 0.00912774 0.00868888 -0.000103258 0.0089242 1.57732e-07 271.694 
-0.77 -0.21 -4.1592 4.7825 0.00916428 0.00874068 -9.36939e-05 0.00896413 1.58382e-07 271.789 
-0.85 -0.19 -2.51121 5.49688 0.00913166 0.00868732 -0.000111834 0.00892335 1.57809e-07 271.536 
-0.75 -0.21 -4.67055 4.4735 0.00917373 0.0087462 -9.6299e-05 0.00897324 1.58464e-07 271.925 
-0.83 -0.19 -2.85528 5.19312 0.00912891 0.00871588 -0.000103989 0.00893743 1.57863e-07 271.871 
-0.81 -0.19 -3.30735 5.1625 0.0091521 0.00870379 -9.81136e-05 0.00893974 1.58044e-07 271.629 
-0.79 -0.19 -3.89604 5.17223 0.00917045 0.00872678 -9.26583e-05 0.00896831 1.58425e-07 271.842 
-0.77 -0.19 -4.07117 5.26499 0.00917173 0.00874113 -0.000106284 0.0089688 1.58592e-07 271.571 
-0.99 -0.33 -0.166327 2.39377 0.00909841 0.0087767 -8.20541e-05 0.00895287 1.5797e-07 272.156 
-0.97 -0.33 -0.444353 2.60459 0.0091137 0.00874779 -7.92681e-05 0.00894347 1.57908e-07 271.977 
-0.91 -0.33 -1.49159 2.95448 0.00914991 0.00873894 -6.17094e-05 0.00894475 1.57805e-07 272.194 
-0.99 -0.31 -0.222932 2.89735 0.00908648 0.00875799 -9.14748e-05 0.00893373 1.57743e-07 271.964 
-0.97 -0.31 -0.413112 2.63069 0.00909826 0.00875003 -8.25572e-05 0.00893545 1.57878e-07 271.785 
-0.87 -0.33 -2.14725 2.63944 0.00914264 0.0087253 -6.31532e-05 0.00894324 1.57866e-07 272.042 
-0.95 -0.31 -0.96758 3.15833 0.00909773 0.00871839 -8.23389e-05 0.00892063 1.57517e-07 271.956 
-0.85 -0.33 -2.22927 2.44923 0.0091421 0.00871164 -5.54971e-05 0.0089408 1.57737e-07 272.19 
-0.93 -0.31 -1.38636 3.24866 0.00911513 0.00873174 -8.47617e-05 0.00893478 1.57714e-07 272.047 
-0.91 -0.31 -1.59148 2.98984 0.00913842 0.00872383 -7.02869e-05 0.00894437 1.57727e-07 272.316 
-0.99 -0.29 -0.0910288 3.15811 0.00906631 0.0087557 -9.95843e-05 0.00892715 1.57623e-07 271.971 
-0.81 -0.33 -3.28185 2.49879 0.00916377 0.00872283 -5.01421e-05 0.00895949 1.58024e-07 272.263 
-0.89 -0.31 -1.70311 3.20945 0.00914592 0.0087154 -5.65255e-05 0.00894712 1.57859e-07 272.172 
-0.97 -0.29 -0.543707 3.14563 0.00907777 0.00873156 -9.30329e-05 0.00891761 1.57492e-07 271.906 
-0.87 -0.31 -2.16871 2.92592 0.00915184 0.00872734 -6.05325e-05 0.0089472 1.58035e-07 271.871 
-0.95 -0.29 -0.796695 3.50965 0.00909566 0.00872133 -9.04216e-05 0.00892467 1.57491e-07 272.124 
-0.85 -0.31 -2.74666 2.77596 0.00914499 0.00870357 -5.85813e-05 0.00893446 1.57768e-07 271.945 
-0.93 -0.29 -1.01015 3.31194 0.00910219 0.00873407 -9.3855e-05 0.00892604 1.57517e-07 272.121 
-0.83 -0.31 -2.94729 3.16868 0.0091428 0.00872106 -5.28347e-05 0.00894957 1.57888e-07 272.197 
-0.91 -0.29 -1.21772 3.5126 0.00909281 0.00870167 -8.22998e-05 0.00891034 1.57298e-07 272.021 
-0.99 -0.27 -0.0774308 3.3731 0.0090808 0.008753 -0.000111268 0.00893597 1.57878e-07 271.8 
-0.81 -0.31 -3.29351 2.98886 0.00914824 0.00871625 -5.76142e-05 0.00895026 1.57973e-07 272.071 
-0.89 -0.29 -1.59972 3.46163 0.00911145 0.00870902 -7.65746e-05 0.00892309 1.57549e-07 271.975 
-0.97 -0.27 -0.422017 3.58775 0.00908277 0.00872406 -0.000107472 0.00891953 1.57486e-07 271.976 
-0.79 -0.31 -3.74818 2.91875 0.00915613 0.00873297 -5.22862e-05 0.00895509 1.58135e-07 271.939 
-0.87 -0.29 -2.06463 3.52709 0.00912302 0.00871828 -5.54593e-05 0.00893308 1.57845e-07 271.769 
-0.95 -0.27 -0.627553 3.65224 0.00909298 0.00872346 -0.000100905 0.00892275 1.57534e-07 271.992 
-0.77 -0.31 -4.08084 3.01299 0.00916137 0.00874571 -4.80072e-05 0.00895484 1.58373e-07 271.524 
-0.85 -0.29 -2.66144 3.27359 0.00913215 0.00870555 -5.83745e-05 0.00893148 1.57882e-07 271.656 
-0.93 -0.27 -0.876119 3.6565 0.00910522 0.00871905 -9.48723e-05 0.00892028 1.57388e-07 272.169 
-0.95 -0.33 -0.514837 2.55139 0.00912335 0.00872383 -7.17475e-05 0.008933 1.57716e-07 271.989 
-0.93 -0.33 -1.05609 2.76228 0.00913627 0.00873199 -5.90757e-05 0.00894046 1.57774e-07 272.116 
-0.89 -0.33 -2.05826 2.7727 0.00914607 0.0087158 -5.66236e-05 0.00893606 1.57715e-07 272.084 
-0.83 -0.33 -2.80095 2.78639 0.00915125 0.00871498 -5.06265e-05 0.00895198 1.57957e-07 272.151 
-0.75 -0.31 -4.30504 2.75239 0.00917487 0.00876943 -4.31498e-05 0.00898726 1.58658e-07 272.017 
-0.75 -0.27 -4.39648 3.67151 0.00920202 0.00876758 -6.1462e-05 0.00899149 1.58828e-07 271.853 
-0.75 -0.25 -4.56006 3.84775 0.00917447 0.00876152 -7.08716e-05 0.00897439 1.58576e-07 271.767 
-0.75 -0.19 -4.48693 4.92787 0.00916467 0.00873828 -9.96421e-05 0.00896647 1.58647e-07 271.406 
-0.79 -0.33 -3.74143 2.51029 0.00915474 0.00873734 -4.80677e-05 0.00895856 1.58165e-07 271.993 
-0.75 -0.33 -4.3378 2.49421 0.00916723 0.00877115 -2.79479e-05 0.00897744 1.58506e-07 271.981 
-0.81 -0.17 -3.54704 5.78212 0.00913478 0.00869758 -0.000109484 0.00892444 1.57744e-07 271.68 
-0.79 -0.17 -3.92085 5.68944 0.00914011 0.00873177 -0.000110417 0.00895311 1.58178e-07 271.805 
-0.75 -0.17 -4.38387 5.4732 0.00916597 0.00874363 -0.000105467 0.00896705 1.58473e-07 271.722 
-0.73 -0.31 -4.8671 2.81345 0.00918611 0.00878431 -4.80346e-05 0.0089991 1.5869e-07 272.321 
-0.73 -0.29 -4.61526 3.19354 0.00919022 0.00878402 -5.03487e-05 0.00899611 1.58987e-07 271.721 
-0.73 -0.27 -4.99981 3.29652 0.00920852 0.00879061 -6.45495e-05 0.00901054 1.59041e-07 272.064 
-0.73 -0.25 -4.64017 3.78326 0.00918863 0.00878 -6.50762e-05 0.00899584 1.5898e-07 271.725 
-0.73 -0.23 -4.83504 4.08228 0.00918137 0.00877644 -7.31562e-05 0.00898957 1.58821e-07 271.807 
-0.73 -0.21 -5.02188 4.43071 0.00919093 0.008772 -9.4185e-05 0.00898582 1.58655e-07 271.979 
-0.73 -0.19 -4.81044 4.89089 0.00916751 0.00878027 -0.000102324 0.00898189 1.58729e-07 271.732 
-0.79 -0.05 -3.19064 7.59756 0.00905332 0.00871253 -0.000154187 0.00890009 1.57536e-07 271.296 
-0.87 -0.03 -2.05319 8.3822 0.00899217 0.00862596 -0.000182179 0.00882875 1.56301e-07 271.248 
-0.83 -0.05 -2.71944 8.00295 0.0090282 0.00867666 -0.00015076 0.00887376 1.56972e-07 271.467 
-0.91 -0.03 -1.60464 8.11915 0.00899036 0.0086209 -0.000188228 0.00882772 1.56186e-07 271.417 
-0.81 -0.05 -2.92089 7.7829 0.0090414 0.00869351 -0.000139773 0.00888722 1.5735e-07 271.225 
-0.89 -0.03 -1.69833 8.35646 0.00898553 0.00862774 -0.000181965 0.00882882 1.56275e-07 271.296 
-0.77 -0.05 -3.59446 7.26631 0.00907004 0.00874167 -0.000154016 0.00892384 1.57732e-07 271.682 
-0.85 -0.03 -2.4844 8.10394 0.00899702 0.00864994 -0.000176571 0.0088484 1.56628e-07 271.285 
-0.75 -0.05 -3.82976 7.12852 0.00908347 0.00876836 -0.000165107 0.00893317 1.57885e-07 271.703 
-0.83 -0.03 -2.71601 8.34009 0.00901853 0.00866454 -0.000168788 0.00886691 1.57014e-07 271.184 
-0.81 -0.03 -3.12749 7.97975 0.00903182 0.00869021 -0.000157624 0.00888048 1.5726e-07 271.174 
-0.79 -0.03 -3.1573 8.07341 0.00905175 0.00871994 -0.0001551 0.00890337 1.57549e-07 271.375 
-0.77 -0.03 -3.51116 7.46502 0.00905548 0.00874575 -0.000164912 0.00891584 1.57642e-07 271.594 
-0.95 -0.17 -0.730345 5.15818 0.00908407 0.00869935 -0.000147546 0.00889894 1.57434e-07 271.438 
-0.99 -0.15 -0.153044 4.80426 0.00904184 0.00870866 -0.000174008 0.00889317 1.57238e-07 271.599 
-0.89 -0.17 -1.95877 5.86887 0.00911432 0.00866779 -0.000122509 0.00890677 1.57332e-07 271.852 
-0.97 -0.15 -0.417639 5.51619 0.00906188 0.00870783 -0.000163015 0.00889451 1.5729e-07 271.551 
-0.95 -0.15 -0.899879 5.65705 0.00906998 0.00867758 -0.000151715 0.00888415 1.57207e-07 271.378 
-0.93 -0.15 -1.20425 6.00086 0.00907872 0.0086698 -0.000140341 0.00889279 1.57293e-07 271.494 
-0.83 -0.17 -2.94054 5.5642 0.00913972 0.00871919 -0.000101029 0.00894191 1.57924e-07 271.902 
-0.91 -0.15 -1.44181 6.24328 0.00909556 0.00867751 -0.00013962 0.00890542 1.57438e-07 271.628 
-0.99 -0.13 -0.279014 5.18196 0.00904521 0.00870818 -0.000192 0.00888972 1.57282e-07 271.419 
-0.89 -0.15 -1.65701 6.16582 0.00909197 0.00865564 -0.000127591 0.00889088 1.57199e-07 271.597 
-0.97 -0.13 -0.526863 5.87004 0.00906101 0.00868923 -0.000168044 0.00888656 1.57204e-07 271.457 
-0.87 -0.15 -2.27202 6.00079 0.00909765 0.00868518 -0.000122787 0.00891511 1.57454e-07 271.896 
-0.95 -0.13 -0.896483 6.07404 0.0090733 0.00866727 -0.000166888 0.00888585 1.57282e-07 271.301 
-0.77 -0.17 -4.16885 5.20185 0.00915367 0.00873537 -0.000105518 0.0089628 1.58506e-07 271.537 
-0.85 -0.15 -2.57949 6.35381 0.00910462 0.00868186 -0.00011137 0.00891095 1.57596e-07 271.525 
-0.93 -0.13 -1.17379 6.07628 0.00908713 0.00867071 -0.000157987 0.00889769 1.57251e-07 271.715 
-0.83 -0.15 -3.0351 6.05804 0.00912148 0.00871002 -0.000117616 0.00893148 1.57856e-07 271.702 
-0.91 -0.13 -1.61944 6.6431 0.00908547 0.00865667 -0.000143435 0.00889652 1.57274e-07 271.641 
-0.99 -0.11 -0.148332 5.55223 0.00904026 0.00869253 -0.000186623 0.00888196 1.57009e-07 271.653 
-0.81 -0.15 -3.36775 6.1776 0.00912944 0.00870985 -0.000112258 0.00893819 1.5785e-07 271.917 
-0.89 -0.13 -1.8892 6.37938 0.0090969 0.00866022 -0.000133495 0.00889585 1.57488e-07 271.251 
-0.97 -0.11 -0.572124 6.13261 0.00903477 0.00867852 -0.000188579 0.0088765 1.56949e-07 271.589 
-0.79 -0.15 -3.79681 5.89922 0.00913313 0.00872535 -0.000118079 0.00894878 1.58183e-07 271.665 
-0.87 -0.13 -2.41604 6.65821 0.00910396 0.00866589 -0.000127887 0.00890731 1.57671e-07 271.284 
-0.95 -0.11 -0.880761 6.42311 0.00904593 0.00865935 -0.000175385 0.00886981 1.56959e-07 271.367 
-0.77 -0.15 -4.21545 5.60494 0.00914167 0.00873613 -0.000115685 0.00895807 1.58464e-07 271.465 
-0.85 -0.13 -2.76034 6.37274 0.00912261 0.00869147 -0.000127569 0.008921 1.57804e-07 271.473 
-0.93 -0.11 -1.34146 6.54819 0.00906125 0.00866089 -0.000169178 0.00888045 1.57305e-07 271.096 
-0.75 -0.15 -4.50958 5.81357 0.00914792 0.00874598 -0.000112918 0.00896476 1.58551e-07 271.518 
-0.83 -0.13 -2.88966 6.61654 0.00912842 0.00870212 -0.000124645 0.00892999 1.57657e-07 272 
-0.91 -0.11 -1.56672 6.91372 0.00906949 0.00864271 -0.000151635 0.00887432 1.57125e-07 271.219 
-0.99 -0.09 -0.0761 5.89671 0.00899658 0.00868657 -0.000202419 0.00885671 1.56757e-07 271.317 
-0.81 -0.13 -3.41809 6.53536 0.00911908 0.00870765 -0.000114895 0.00892932 1.58049e-07 271.304 
-0.89 -0.11 -1.9646 6.92628 0.00908332 0.00865582 -0.000142775 0.00888455 1.57468e-07 270.94 
-0.97 -0.09 -0.532828 6.69918 0.00901745 0.00866832 -0.000194001 0.00886977 1.5694e-07 271.4 
-0.79 -0.13 -3.56229 6.39099 0.009131 0.00872727 -0.00012433 0.00894831 1.58128e-07 271.745 
-0.87 -0.11 -2.32902 7.00204 0.00909575 0.00866159 -0.000145605 0.00890057 1.57595e-07 271.21 
-0.95 -0.09 -0.975275 6.77598 0.00903362 0.00866206 -0.000183 0.00887413 1.57016e-07 271.4 
-0.77 -0.13 -4.02541 6.04494 0.00913359 0.00873346 -0.000120919 0.0089465 1.58148e-07 271.656 
-0.85 -0.11 -2.61157 6.74039 0.00910287 0.00868922 -0.000131463 0.0089102 1.5779e-07 271.168 
-0.93 -0.09 -1.22467 6.75939 0.00903509 0.00864259 -0.0001786 0.00886124 1.5702e-07 271.001 
-0.83 -0.11 -3.0015 7.08861 0.0091001 0.00868615 -0.000123585 0.00891392 1.57707e-07 271.425 
-0.91 -0.09 -1.40623 7.23982 0.0090416 0.00863197 -0.000161473 0.00885951 1.5694e-07 271.086 
-0.99 -0.07 -0.357977 6.26478 0.00900566 0.00868387 -0.000206026 0.00885876 1.56655e-07 271.556 
-0.81 -0.11 -3.30931 6.57757 0.0091258 0.00871972 -0.000125327 0.00893591 1.57821e-07 271.896 
-0.89 -0.09 -1.96409 7.3159 0.0090573 0.00865457 -0.000159965 0.00887594 1.57283e-07 270.995 
-0.97 -0.07 -0.61773 7.04335 0.00899215 0.00865518 -0.000203495 0.00884721 1.56551e-07 271.382 
-0.79 -0.11 -3.49268 6.73792 0.00912795 0.00872441 -0.000129088 0.00894448 1.58231e-07 271.452 
-0.87 -0.09 -2.19858 7.30382 0.00907341 0.00865524 -0.00015634 0.00888837 1.57506e-07 270.991 
-0.95 -0.07 -0.761411 7.04116 0.00899278 0.00865449 -0.000191129 0.00884537 1.56388e-07 271.608 
-0.77 -0.11 -3.95934 6.28278 0.00912959 0.00872228 -0.000128444 0.00894252 1.58034e-07 271.731 
-0.85 -0.09 -2.57858 7.13103 0.00908052 0.00867058 -0.000145923 0.0088914 1.57471e-07 271.144 
-0.93 -0.07 -1.14719 7.22827 0.00900247 0.00863078 -0.000181889 0.00884469 1.56613e-07 271.197 
-0.75 -0.11 -4.40031 6.29431 0.00914257 0.00875647 -0.000126662 0.00895853 1.58454e-07 271.496 
-0.83 -0.09 -2.88268 7.20141 0.00909988 0.00869118 -0.000137584 0.00891406 1.57689e-07 271.46 
-0.91 -0.07 -1.6827 7.54065 0.00902735 0.00862753 -0.000179641 0.00885297 1.56612e-07 271.452 
-0.99 -0.05 -0.00728259 6.67068 0.00898094 0.00867376 -0.000214797 0.00884594 1.56541e-07 271.36 
-0.81 -0.09 -3.26005 7.09104 0.00910081 0.00871767 -0.000138117 0.00892492 1.57872e-07 271.474 
-0.89 -0.07 -1.90459 7.63131 0.0090379 0.0086513 -0.000177588 0.00886562 1.56986e-07 271.194 
-0.97 -0.05 -0.469389 7.23688 0.00900755 0.00865518 -0.00020671 0.00885073 1.56665e-07 271.292 
-0.79 -0.09 -3.69659 6.92524 0.00910507 0.00872314 -0.000126913 0.00892634 1.5785e-07 271.555 
-0.87 -0.07 -2.31158 7.81956 0.00903676 0.00864142 -0.000158559 0.00886611 1.56951e-07 271.269 
-0.95 -0.05 -0.710577 7.35719 0.00900468 0.00863539 -0.000196072 0.00884144 1.56387e-07 271.489 
-0.77 -0.09 -3.85416 6.87184 0.00910326 0.00872213 -0.000123104 0.00893292 1.5794e-07 271.602 
-0.85 -0.07 -2.62913 7.42184 0.00904528 0.00865954 -0.000152054 0.00887617 1.56953e-07 271.572 
-0.93 -0.05 -1.25235 7.78295 0.00900009 0.00862669 -0.000184896 0.00883723 1.5641e-07 271.32 
-0.75 -0.09 -4.13778 6.56238 0.00909419 0.00875324 -0.000135113 0.0089383 1.58057e-07 271.563 
-0.83 -0.07 -3.01938 7.57876 0.00905346 0.00868891 -0.000146992 0.0088861 1.57175e-07 271.492 
-0.91 -0.05 -1.49283 7.98037 0.00899457 0.00862539 -0.000185897 0.00883531 1.56387e-07 271.301 
-0.99 -0.03 -0.195041 7.06972 0.00895721 0.0086644 -0.000231075 0.00882565 1.56146e-07 271.422 
-0.81 -0.07 -3.41243 7.64757 0.00905793 0.00870754 -0.000146557 0.00889987 1.57509e-07 271.337 
-0.89 -0.05 -1.84611 7.9576 0.00900029 0.00863639 -0.000180031 0.00884535 1.56673e-07 271.113 
-0.97 -0.03 -0.366773 7.49096 0.00895794 0.00863359 -0.000211523 0.00881356 1.56093e-07 271.143 