ITEM: TIMESTEP
1070500
ITEM: NUMBER OF CELLS
5000
ITEM: BOX BOUNDS ss ss pp
-1 1
-0.5 0.5
-0.5 0.5
ITEM: CELLS xc yc f_U[*] f_V[*] f_Tau[1] f_Tau[2] f_Tau[3] f_Press[*] f_Mrho[*] f_Ttra[*] 
-0.99 -0.49 -0.212571 0.280527 0.00899528 0.00875135 -2.7926e-05 0.00888599 1.56741e-07 272.241 
-0.97 -0.49 -0.575557 0.0732612 0.00899093 0.00875216 -3.09935e-05 0.00888468 1.56627e-07 272.399 
-0.95 -0.49 -0.701115 0.0427401 0.00899155 0.00875191 -3.11663e-05 0.00888057 1.56599e-07 272.322 
-0.93 -0.49 -0.901448 0.107578 0.00899738 0.00874587 -2.31626e-05 0.00888127 1.56666e-07 272.226 
-0.91 -0.49 -1.15248 0.0898409 0.00900121 0.00872574 -2.25227e-05 0.00886783 1.56436e-07 272.213 
-0.99 -0.47 -0.161782 0.542937 0.00901863 0.00877226 -1.7819e-05 0.00890541 1.57052e-07 272.296 
-0.89 -0.49 -1.51321 0.233641 0.00901597 0.00874234 -2.27395e-05 0.00888301 1.56743e-07 272.147 
-0.97 -0.47 -0.409801 0.3766 0.00901878 0.00874931 -3.25061e-05 0.00889864 1.56859e-07 272.423 
-0.87 -0.49 -1.72036 0.0471078 0.00903437 0.00875713 -1.72531e-05 0.00889884 1.57018e-07 272.154 
-0.95 -0.47 -0.681974 0.293564 0.00902437 0.00875362 -3.18848e-05 0.00889862 1.56868e-07 272.408 
-0.85 -0.49 -1.98909 0.128376 0.00903956 0.00875547 -1.01331e-05 0.0089003 1.56912e-07 272.383 
-0.93 -0.47 -0.914051 0.311915 0.00902775 0.00874156 -3.35411e-05 0.00889199 1.56815e-07 272.296 
-0.83 -0.49 -2.07071 -0.0115491 0.00904712 0.00876429 1.95642e-06 0.00891099 1.57165e-07 272.271 
-0.91 -0.47 -1.23498 0.544325 0.0090399 0.00873093 -3.07984e-05 0.0088913 1.56879e-07 272.164 
-0.99 -0.45 -0.118471 0.89615 0.00905227 0.00877295 -2.8944e-05 0.00892259 1.5731e-07 272.374 
-0.81 -0.49 -2.24308 0.194462 0.00905839 0.0087697 1.09019e-05 0.00892141 1.57362e-07 272.247 
-0.89 -0.47 -1.62952 0.48645 0.00904314 0.00873883 -3.22998e-05 0.00889137 1.56931e-07 272.076 
-0.97 -0.45 -0.408794 0.613088 0.00905456 0.0087614 -3.27717e-05 0.00892229 1.57332e-07 272.326 
-0.79 -0.49 -2.52214 0.0959192 0.00906924 0.00877923 1.25643e-05 0.00893305 1.57522e-07 272.326 
-0.87 -0.47 -1.91164 0.272547 0.00904759 0.00874669 -2.83812e-05 0.00890459 1.57158e-07 272.086 
-0.95 -0.45 -0.750485 0.595966 0.00905574 0.00875063 -3.51007e-05 0.00891358 1.57099e-07 272.464 
-0.77 -0.49 -2.55407 -0.044697 0.00907245 0.0087888 2.27289e-05 0.00894023 1.57576e-07 272.451 
-0.85 -0.47 -1.9767 0.352288 0.00905586 0.00874834 -1.47767e-05 0.00891163 1.5715e-07 272.317 
-0.93 -0.45 -1.154 0.537438 0.00906142 0.00874042 -4.09008e-05 0.00890768 1.57141e-07 272.21 
-0.83 -0.47 -2.40695 0.201514 0.00906363 0.00875697 -1.04094e-05 0.0089182 1.57293e-07 272.269 
-0.91 -0.45 -1.29528 0.742143 0.00905927 0.00873325 -3.73985e-05 0.00889768 1.57074e-07 272.021 
-0.99 -0.43 -0.207938 1.14318 0.00905551 0.00877015 -3.57984e-05 0.0089275 1.57632e-07 271.967 
-0.81 -0.47 -2.59832 0.43559 0.00907436 0.00876047 -2.3361e-06 0.00893044 1.57427e-07 272.411 
-0.89 -0.45 -1.56908 0.8798 0.00907235 0.00873414 -3.80961e-05 0.00890344 1.57123e-07 272.112 
-0.97 -0.43 -0.47807 0.934792 0.00907055 0.00876906 -3.83632e-05 0.00893192 1.57566e-07 272.216 
-0.79 -0.47 -2.9074 0.339524 0.00908514 0.00877204 7.65256e-06 0.00894244 1.57676e-07 272.345 
-0.87 -0.45 -2.00047 0.584498 0.00907562 0.00874004 -2.5642e-05 0.00891043 1.5718e-07 272.228 
-0.95 -0.43 -0.792592 0.926789 0.00907856 0.00875165 -4.26213e-05 0.00892272 1.57441e-07 272.15 
-0.77 -0.47 -3.18209 0.0562009 0.00909393 0.00877926 1.16001e-05 0.00894645 1.57829e-07 272.205 
-0.85 -0.45 -2.30559 0.491556 0.00908067 0.00873941 -2.27762e-05 0.00891922 1.5739e-07 272.132 
-0.93 -0.43 -1.01379 0.911854 0.00908112 0.00874118 -3.76853e-05 0.00891518 1.57262e-07 272.231 
-0.75 -0.47 -3.27605 0.38312 0.00910502 0.00879244 1.90889e-05 0.00895323 1.57776e-07 272.502 
-0.83 -0.45 -2.51396 0.578804 0.00909133 0.00875769 -2.04236e-05 0.00893122 1.57564e-07 272.197 
-0.91 -0.43 -1.5198 0.994309 0.00908636 0.00873717 -4.31695e-05 0.00891486 1.57279e-07 272.191 
-0.99 -0.41 -0.138743 1.46572 0.00907761 0.00877415 -4.75486e-05 0.00893787 1.57727e-07 272.118 
-0.81 -0.45 -2.87521 0.760898 0.00909306 0.0087435 -1.10965e-05 0.00892939 1.57551e-07 272.164 
-0.89 -0.43 -1.73315 1.1597 0.00908114 0.00872769 -4.07387e-05 0.00891115 1.57312e-07 272.021 
-0.97 -0.41 -0.394297 1.171 0.00908434 0.00876745 -5.02607e-05 0.00893293 1.57561e-07 272.256 
-0.79 -0.45 -2.99535 0.515745 0.00910164 0.00876386 1.74444e-06 0.00894207 1.5777e-07 272.173 
-0.87 -0.43 -1.97778 0.954968 0.00908594 0.00872909 -3.81034e-05 0.00891601 1.57329e-07 272.14 
-0.95 -0.41 -0.659163 1.26589 0.00909087 0.00875617 -4.61545e-05 0.00893311 1.57548e-07 272.283 
-0.77 -0.45 -3.36539 0.420666 0.00911046 0.00877756 5.96146e-06 0.00894954 1.57829e-07 272.298 
-0.85 -0.43 -2.36605 0.837669 0.00910162 0.00873924 -3.14167e-05 0.00892993 1.57604e-07 272.089 
-0.93 -0.41 -1.26318 1.36262 0.00909443 0.00873441 -4.54629e-05 0.00892656 1.57475e-07 272.209 
-0.75 -0.45 -3.66934 0.506203 0.00911422 0.00878337 7.72959e-06 0.00895532 1.58026e-07 272.134 
-0.83 -0.43 -2.69342 0.853217 0.00910634 0.00874965 -1.97527e-05 0.00893564 1.57607e-07 272.258 
-0.91 -0.41 -1.42844 1.29681 0.00910002 0.00873607 -4.04716e-05 0.00892803 1.57573e-07 272.085 
-0.99 -0.39 -0.141849 1.73983 0.00908335 0.00877885 -5.29838e-05 0.00894091 1.57858e-07 271.985 
-0.81 -0.43 -3.02525 0.961937 0.00911242 0.00873506 -1.76602e-05 0.00893455 1.57648e-07 272.154 
-0.89 -0.41 -1.72054 1.40948 0.00910172 0.00873108 -4.48474e-05 0.00892614 1.57428e-07 272.278 
-0.97 -0.39 -0.528125 1.46433 0.00909536 0.00876911 -5.37161e-05 0.00893866 1.57716e-07 272.162 
-0.79 -0.43 -3.36915 0.831416 0.00911892 0.00875585 -8.78987e-06 0.00894854 1.57916e-07 272.117 
-0.87 -0.41 -2.11008 1.31921 0.00910652 0.00872673 -3.97097e-05 0.00892928 1.57481e-07 272.281 
-0.95 -0.39 -0.904455 1.59784 0.00909799 0.00875133 -5.40492e-05 0.00893021 1.57484e-07 272.305 
-0.77 -0.43 -3.64686 0.761301 0.00912549 0.00877409 -2.63773e-07 0.00895906 1.58098e-07 272.123 
-0.85 -0.41 -2.5759 1.17169 0.00910471 0.00873329 -3.93891e-05 0.00892886 1.57613e-07 272.041 
-0.93 -0.39 -0.914978 1.60562 0.00910442 0.00873269 -4.76521e-05 0.00892945 1.57542e-07 272.182 
-0.83 -0.41 -2.78846 1.18827 0.00911395 0.00873597 -3.07773e-05 0.00892868 1.57586e-07 272.083 
-0.91 -0.39 -1.34476 1.75295 0.0091108 0.00873479 -4.71118e-05 0.0089362 1.57659e-07 272.185 
-0.99 -0.37 -0.00137983 2.02629 0.00908878 0.00878553 -6.35009e-05 0.00894699 1.57972e-07 271.973 
-0.81 -0.41 -3.02916 1.29598 0.00911879 0.00873059 -1.9348e-05 0.00893273 1.57741e-07 271.938 
-0.89 -0.39 -1.67556 1.66971 0.0091173 0.00873498 -4.70434e-05 0.00894035 1.57672e-07 272.289 
-0.97 -0.37 -0.423256 1.94353 0.00909616 0.00876268 -6.21972e-05 0.00893883 1.57775e-07 272.065 
-0.79 -0.41 -3.38035 1.1039 0.00913131 0.00875097 -1.99916e-05 0.00895197 1.57987e-07 272.1 
-0.87 -0.39 -1.96985 1.69846 0.00911949 0.00871906 -4.52087e-05 0.0089301 1.5768e-07 271.963 
-0.95 -0.37 -0.788175 1.80424 0.00910252 0.00874624 -5.5566e-05 0.00893342 1.57683e-07 272.06 
-0.77 -0.41 -3.73297 1.1008 0.00914001 0.00877218 -1.34953e-05 0.00896871 1.58269e-07 272.122 
-0.85 -0.39 -2.34689 1.60888 0.00912929 0.0087337 -4.13158e-05 0.00894097 1.5787e-07 271.967 
-0.93 -0.37 -1.22292 1.92181 0.00910601 0.00873353 -5.76362e-05 0.00893201 1.57666e-07 272.046 
-0.75 -0.41 -3.97687 0.939194 0.00915199 0.00877781 -1.11731e-05 0.00897554 1.58356e-07 272.179 
-0.83 -0.39 -2.7269 1.49975 0.00912799 0.00872091 -3.74915e-05 0.00893126 1.5768e-07 271.998 
-0.91 -0.37 -1.44668 1.95754 0.00911749 0.00873122 -5.89857e-05 0.00893699 1.57637e-07 272.248 
-0.99 -0.35 -0.237367 2.2364 0.00909833 0.00878591 -7.48808e-05 0.00895403 1.58223e-07 271.757 
-0.81 -0.39 -3.07942 1.50499 0.0091375 0.00873212 -3.31152e-05 0.00894508 1.57804e-07 272.205 
-0.89 -0.37 -1.73133 2.02528 0.00912466 0.00873139 -5.07438e-05 0.00893868 1.57862e-07 271.911 
-0.97 -0.35 -0.41975 2.33919 0.00910266 0.00875281 -6.84732e-05 0.00893944 1.5784e-07 271.972 
-0.79 -0.39 -3.36413 1.4889 0.0091422 0.00873985 -2.58601e-05 0.00895171 1.58059e-07 271.968 
-0.87 -0.37 -2.13526 2.10637 0.00912642 0.00871864 -5.1092e-05 0.00893511 1.57735e-07 272.021 
-0.95 -0.35 -0.811283 2.17876 0.00911398 0.00874253 -6.50119e-05 0.00893778 1.57792e-07 272.004 
-0.77 -0.39 -3.76752 1.42849 0.0091519 0.00877305 -2.12261e-05 0.00897379 1.58359e-07 272.121 
-0.85 -0.37 -2.53315 2.01113 0.00912896 0.00872612 -4.98981e-05 0.00893564 1.57811e-07 271.906 
-0.93 -0.35 -1.15427 2.23292 0.00912458 0.0087367 -6.49167e-05 0.0089409 1.57831e-07 272.032 
-0.83 -0.37 -2.98702 1.7858 0.00913623 0.0087146 -4.00478e-05 0.00893228 1.57735e-07 271.935 
-0.91 -0.35 -1.53225 2.32882 0.00912405 0.00873036 -5.9321e-05 0.00893514 1.57669e-07 272.135 
-0.81 -0.37 -3.2312 1.78105 0.0091448 0.00872884 -3.42364e-05 0.0089472 1.57902e-07 272.101 
-0.89 -0.35 -1.90837 2.46902 0.00912511 0.00872221 -5.50714e-05 0.00893268 1.5774e-07 271.938 
-0.79 -0.37 -3.61165 1.88516 0.00914949 0.00873578 -3.31205e-05 0.00895849 1.58217e-07 271.901 
-0.87 -0.35 -2.28051 2.36076 0.00913234 0.0087203 -5.54577e-05 0.0089366 1.578e-07 271.955 
-0.77 -0.37 -3.88412 1.92332 0.00915754 0.00876929 -2.90175e-05 0.00897155 1.58208e-07 272.314 
-0.85 -0.35 -2.60171 2.43733 0.00913814 0.00871753 -4.91945e-05 0.00893833 1.57882e-07 271.866 
-0.83 -0.35 -2.94169 2.14224 0.00914085 0.00871438 -4.87083e-05 0.00893599 1.57873e-07 271.81 
-0.81 -0.35 -3.38722 2.17109 0.00914721 0.00872476 -4.935e-05 0.00894941 1.57955e-07 272.076 
-0.79 -0.35 -3.70708 2.20892 0.00916425 0.00873383 -4.41736e-05 0.00895965 1.58244e-07 271.89 
-0.77 -0.35 -3.9028 2.19335 0.00917594 0.00875678 -3.55314e-05 0.00897752 1.58318e-07 272.305 
-0.75 -0.35 -4.18904 2.22236 0.00918677 0.00876997 -2.87185e-05 0.00898693 1.58614e-07 272.083 
-0.75 -0.49 -2.73987 0.183164 0.00907961 0.00879325 2.82847e-05 0.00894091 1.57631e-07 272.377 
-0.75 -0.43 -3.87977 0.685354 0.00913597 0.00878023 -3.38853e-06 0.00896823 1.58152e-07 272.309 
-0.75 -0.39 -4.34413 1.33753 0.00915294 0.00877325 -2.03858e-05 0.00897384 1.58363e-07 272.116 
-0.75 -0.37 -4.2537 1.83708 0.00916182 0.0087702 -1.67916e-05 0.008974 1.58356e-07 272.133 
-0.77 -0.33 -3.90957 2.43746 0.00916644 0.00874713 -4.87208e-05 0.00896529 1.58402e-07 271.791 
-0.73 -0.49 -3.03634 0.166974 0.00908587 0.00881024 2.62367e-05 0.0089556 1.5789e-07 272.377 
-0.73 -0.47 -3.37104 0.29267 0.00911274 0.00880293 2.42774e-05 0.00896893 1.58131e-07 272.367 
-0.73 -0.45 -3.84518 0.44703 0.00912847 0.00880332 1.25799e-05 0.0089736 1.58275e-07 272.261 
-0.73 -0.43 -4.17935 0.869876 0.0091446 0.00880027 6.62336e-07 0.00898272 1.58433e-07 272.265 
-0.73 -0.41 -4.35658 1.12863 0.0091614 0.00879668 -7.89087e-06 0.00898668 1.58602e-07 272.095 
-0.73 -0.39 -4.49788 1.43424 0.00915629 0.0087882 -8.75496e-06 0.00897613 1.58464e-07 272.013 
-0.73 -0.37 -4.82578 1.67178 0.00916648 0.00877645 -2.38274e-05 0.00897547 1.58506e-07 271.921 
-0.73 -0.35 -4.46603 1.94292 0.00918957 0.00878238 -2.64108e-05 0.00898981 1.58705e-07 272.013 
-0.81 -0.29 -3.35056 3.35304 0.00916052 0.00872032 -6.48209e-05 0.00894849 1.58082e-07 271.831 
-0.89 -0.27 -1.90533 3.83259 0.00912732 0.00869838 -8.77799e-05 0.00892996 1.57747e-07 271.844 
-0.97 -0.25 -0.448285 3.72657 0.00908976 0.00872903 -0.000111217 0.00892165 1.57748e-07 271.589 
-0.83 -0.29 -2.94703 3.35154 0.0091548 0.00871655 -6.86213e-05 0.00894678 1.57861e-07 272.159 
-0.91 -0.27 -1.44765 3.9202 0.00912589 0.00870647 -9.00448e-05 0.00893096 1.57762e-07 271.847 
-0.99 -0.25 -0.116166 3.77041 0.00908105 0.00875688 -0.000119 0.00893433 1.57971e-07 271.59 
-0.79 -0.29 -3.63954 3.20199 0.00916633 0.00872313 -6.221e-05 0.00895294 1.5815e-07 271.849 
-0.87 -0.27 -2.34104 3.9343 0.00913578 0.00870493 -7.87263e-05 0.0089386 1.57859e-07 271.913 
-0.95 -0.25 -0.797343 3.8831 0.00910508 0.00871908 -0.000105153 0.00892775 1.57773e-07 271.732 
-0.77 -0.29 -4.04092 3.23115 0.00917789 0.00873683 -5.75837e-05 0.00896628 1.58316e-07 271.969 
-0.85 -0.27 -2.67937 3.79264 0.00914869 0.00871451 -7.64397e-05 0.0089458 1.57947e-07 271.981 
-0.93 -0.25 -1.11794 4.11357 0.0091105 0.00870819 -0.000103135 0.00892435 1.57653e-07 271.834 
-0.75 -0.29 -4.52757 3.20707 0.00918705 0.00875724 -5.66566e-05 0.0089834 1.5859e-07 272.016 
-0.83 -0.27 -3.1317 3.65917 0.00915766 0.00871814 -7.18238e-05 0.00895044 1.57953e-07 272.112 
-0.91 -0.25 -1.45661 4.21499 0.00911612 0.00869708 -9.79869e-05 0.00892177 1.57612e-07 271.827 
-0.99 -0.23 -0.0664918 3.96534 0.00906753 0.00875275 -0.000128495 0.00892284 1.57747e-07 271.626 
-0.81 -0.27 -3.49601 3.70236 0.00916153 0.0087156 -7.58022e-05 0.00894819 1.58037e-07 271.899 
-0.89 -0.25 -1.78632 4.20506 0.00912744 0.00869886 -9.02136e-05 0.00893297 1.57732e-07 271.96 
-0.97 -0.23 -0.324704 4.11728 0.00908202 0.00872925 -0.000120742 0.00891861 1.57663e-07 271.643 
-0.79 -0.27 -3.93049 3.58059 0.00917469 0.00871919 -6.97859e-05 0.00895186 1.58232e-07 271.674 
-0.87 -0.25 -2.13726 4.32773 0.00913666 0.00869827 -9.17098e-05 0.00893811 1.57921e-07 271.791 
-0.95 -0.23 -0.802645 4.32867 0.00908795 0.0087098 -0.000119537 0.00891054 1.57458e-07 271.75 
-0.77 -0.27 -4.29198 3.6116 0.00917548 0.00873534 -6.44509e-05 0.00896841 1.58466e-07 271.774 
-0.85 -0.25 -2.56601 4.18364 0.00914937 0.008711 -8.87304e-05 0.00894622 1.57951e-07 271.986 
-0.93 -0.23 -1.18178 4.43282 0.00910609 0.00870348 -0.000112112 0.0089183 1.57504e-07 271.908 
-0.83 -0.25 -3.01942 4.14299 0.00915518 0.00870691 -8.05664e-05 0.00893808 1.57965e-07 271.714 
-0.91 -0.23 -1.50988 4.41927 0.00911667 0.00869043 -0.000102384 0.00892175 1.57567e-07 271.903 
-0.99 -0.21 -0.0625797 4.14622 0.00908524 0.00874554 -0.000135454 0.00892692 1.57791e-07 271.676 
-0.81 -0.25 -3.32394 4.07417 0.00916157 0.00872409 -7.49178e-05 0.00895193 1.58128e-07 271.855 
-0.89 -0.23 -1.90339 4.77315 0.00912476 0.00869825 -0.000104478 0.00892574 1.57637e-07 271.905 
-0.97 -0.21 -0.332997 4.46103 0.00909327 0.00871633 -0.000131954 0.00891441 1.57592e-07 271.638 
-0.79 -0.25 -3.79206 4.11116 0.00915467 0.0087102 -7.83616e-05 0.00894402 1.58137e-07 271.6 
-0.87 -0.23 -2.4006 4.63027 0.00913723 0.00869492 -0.000104992 0.00892766 1.5778e-07 271.717 
-0.95 -0.21 -0.653661 4.70583 0.00910084 0.00871174 -0.000125689 0.00891891 1.57625e-07 271.718 
-0.77 -0.25 -4.19653 3.84718 0.00916757 0.00873397 -7.62338e-05 0.00895647 1.58278e-07 271.736 
-0.85 -0.23 -2.67899 4.65118 0.009141 0.00870456 -9.34107e-05 0.00893285 1.57811e-07 271.82 
-0.93 -0.21 -1.15359 4.86697 0.00910265 0.00869246 -0.000123719 0.00891341 1.57575e-07 271.637 
-0.83 -0.23 -3.04655 4.56876 0.00914242 0.00869801 -8.587e-05 0.00893205 1.57811e-07 271.796 
-0.91 -0.21 -1.49123 4.77632 0.00911316 0.00868535 -0.000116356 0.0089157 1.57577e-07 271.702 
-0.99 -0.19 -0.22666 4.44825 0.00907621 0.0087356 -0.000149237 0.00891851 1.57608e-07 271.734 
-0.81 -0.23 -3.52152 4.3387 0.00915191 0.00871725 -8.16009e-05 0.00894682 1.58e-07 271.921 
-0.89 -0.21 -1.87921 5.20616 0.00912979 0.00870167 -0.000111866 0.00893188 1.57746e-07 271.903 
-0.97 -0.19 -0.526634 4.73669 0.00908489 0.00870764 -0.00013686 0.00890592 1.57429e-07 271.66 
-0.79 -0.23 -3.65681 4.49779 0.0091648 0.0087198 -7.83003e-05 0.0089557 1.58151e-07 271.931 
-0.87 -0.21 -2.20909 5.05742 0.00913129 0.00868182 -0.00010783 0.00892153 1.57749e-07 271.584 
-0.95 -0.19 -0.801326 5.01568 0.00909592 0.00871089 -0.000133851 0.00891334 1.57556e-07 271.666 
-0.77 -0.23 -3.96668 4.2304 0.00916428 0.00872932 -8.66066e-05 0.0089525 1.58214e-07 271.726 
-0.85 -0.21 -2.76859 5.00924 0.00913626 0.0086954 -9.77428e-05 0.00892876 1.57762e-07 271.781 
-0.93 -0.19 -0.898303 5.22728 0.00910489 0.00868704 -0.000128612 0.00891143 1.57576e-07 271.573 
-0.75 -0.23 -4.51166 4.0788 0.00917359 0.00874263 -8.31283e-05 0.00896769 1.58456e-07 271.771 
-0.83 -0.21 -3.10849 4.79551 0.00914948 0.00869893 -9.37695e-05 0.00893707 1.57816e-07 271.94 
-0.91 -0.19 -1.33447 5.29212 0.00910809 0.00868082 -0.000126431 0.00890722 1.57445e-07 271.672 
-0.81 -0.21 -3.31786 4.72742 0.00915305 0.00870944 -8.85459e-05 0.00894867 1.58101e-07 271.803 
-0.89 -0.19 -1.88309 5.53661 0.00911359 0.00869148 -0.000116223 0.00891837 1.57572e-07 271.791 
-0.79 -0.21 -3.72686 4.77965 0.00915557 0.00871995 -8.75217e-05 0.00895398 1.58252e-07 271.704 
-0.87 -0.19 -2.35991 5.48272 0.009117 0.00868214 -0.000109161 0.00891768 1.5766e-07 271.62 
-0.77 -0.21 -4.16249 4.70564 0.00916621 0.00873435 -8.9545e-05 0.00896169 1.58377e-07 271.724 
-0.85 -0.19 -2.63054 5.41114 0.00912109 0.00868562 -0.000109025 0.00891788 1.57616e-07 271.7 
-0.75 -0.21 -4.57471 4.54922 0.00916747 0.00874162 -9.26147e-05 0.00896613 1.58398e-07 271.823 
-0.83 -0.19 -2.95523 5.11079 0.00912064 0.00869664 -0.000105034 0.00892425 1.57748e-07 271.669 
-0.81 -0.19 -3.34231 5.15836 0.00913915 0.00869907 -9.79271e-05 0.00893324 1.57883e-07 271.71 
-0.79 -0.19 -3.82895 5.13036 0.00915758 0.00872914 -9.76781e-05 0.00895908 1.58244e-07 271.874 
-0.77 -0.19 -4.12166 5.17278 0.00916936 0.0087316 -0.000100154 0.0089644 1.58396e-07 271.773 
-0.99 -0.33 -0.0652818 2.48767 0.00909784 0.00878109 -8.23331e-05 0.00894755 1.5801e-07 271.925 
-0.97 -0.33 -0.4393 2.60958 0.00911243 0.00875219 -8.10787e-05 0.00894319 1.57902e-07 271.979 
-0.91 -0.33 -1.54804 2.74674 0.00913992 0.00872108 -6.57247e-05 0.00893818 1.57682e-07 272.205 
-0.99 -0.31 -0.201819 2.82605 0.00909448 0.00877229 -9.57967e-05 0.00894127 1.57946e-07 271.845 
-0.97 -0.31 -0.403608 2.8909 0.00910128 0.00875224 -8.88381e-05 0.0089369 1.57957e-07 271.693 
-0.87 -0.33 -2.28206 2.79323 0.0091509 0.00872501 -5.67008e-05 0.00894924 1.57976e-07 272.035 
-0.95 -0.31 -0.792056 3.0296 0.0091091 0.00872725 -8.46381e-05 0.00892901 1.57674e-07 271.94 
-0.85 -0.33 -2.52868 2.67573 0.0091463 0.00871265 -5.39733e-05 0.00893954 1.57749e-07 272.132 
-0.93 -0.31 -1.15531 2.9638 0.00912254 0.00873144 -8.28528e-05 0.00894065 1.57761e-07 272.145 
-0.91 -0.31 -1.49397 3.0169 0.00913083 0.00871249 -6.87929e-05 0.00893865 1.57704e-07 272.182 
-0.99 -0.29 -0.126143 3.10833 0.00908688 0.00877076 -0.000103559 0.00894221 1.57972e-07 271.828 
-0.81 -0.33 -3.38372 2.56669 0.00915883 0.00872661 -5.39767e-05 0.00895227 1.58129e-07 271.864 
-0.89 -0.31 -1.80362 3.19398 0.00913702 0.00871149 -6.49445e-05 0.00893589 1.57807e-07 271.921 
-0.97 -0.29 -0.42064 3.14992 0.00909877 0.00874387 -9.84134e-05 0.00893176 1.5777e-07 271.859 
-0.87 -0.31 -2.23257 3.10214 0.00914254 0.00871782 -6.18163e-05 0.00893957 1.57892e-07 271.886 
-0.95 -0.29 -0.729825 3.39237 0.00910621 0.00872385 -9.50631e-05 0.00892662 1.57612e-07 271.974 
-0.85 -0.31 -2.57197 2.926 0.00915333 0.00871296 -5.99666e-05 0.0089456 1.57971e-07 271.933 
-0.93 -0.29 -1.05347 3.2684 0.00911053 0.00872004 -8.61963e-05 0.0089259 1.57651e-07 271.886 
-0.83 -0.31 -2.90168 3.01708 0.00916059 0.00871908 -5.84168e-05 0.00895234 1.57989e-07 272.107 
-0.91 -0.29 -1.39521 3.47998 0.00911343 0.00870437 -8.11317e-05 0.00891915 1.57536e-07 271.877 
-0.99 -0.27 -0.161875 3.45582 0.00910068 0.00876313 -0.000108234 0.00894562 1.58156e-07 271.616 
-0.81 -0.31 -3.23938 2.99276 0.00916436 0.0087216 -5.92214e-05 0.00895947 1.58076e-07 272.174 
-0.89 -0.29 -1.747 3.49049 0.00912696 0.00870909 -7.67466e-05 0.00892918 1.57676e-07 271.942 
-0.97 -0.27 -0.509537 3.41872 0.00910293 0.00873919 -0.000102421 0.00893628 1.5784e-07 271.875 
-0.79 -0.31 -3.73887 2.73392 0.00916808 0.00872849 -5.69561e-05 0.00895821 1.5824e-07 271.854 
-0.87 -0.29 -2.05558 3.50492 0.00914033 0.00871189 -6.6209e-05 0.00893964 1.57888e-07 271.895 
-0.95 -0.27 -0.650534 3.62972 0.00910486 0.00871958 -9.82851e-05 0.00892464 1.57594e-07 271.945 
-0.77 -0.31 -4.18533 2.82728 0.00916968 0.00873991 -5.20391e-05 0.00895685 1.58233e-07 271.825 
-0.85 -0.29 -2.60112 3.35956 0.00914698 0.00871233 -6.71685e-05 0.0089406 1.57877e-07 271.942 
-0.93 -0.27 -1.03265 3.61206 0.00911216 0.00871134 -9.23826e-05 0.00892157 1.57449e-07 272.102 
-0.95 -0.33 -0.728269 2.59107 0.00912051 0.00873226 -7.49566e-05 0.00893919 1.57857e-07 271.934 
-0.93 -0.33 -1.1352 2.61117 0.0091311 0.00873707 -6.8201e-05 0.00894178 1.57805e-07 272.103 
-0.89 -0.33 -1.99354 2.77139 0.00914679 0.00871475 -5.94046e-05 0.00893914 1.57784e-07 272.058 
-0.83 -0.33 -2.91379 2.60986 0.00914952 0.00871284 -5.4833e-05 0.0089452 1.57976e-07 271.912 
-0.75 -0.31 -4.54535 2.79731 0.00917276 0.00875358 -4.85642e-05 0.00897368 1.58456e-07 271.951 
-0.75 -0.27 -4.50711 3.6638 0.00918682 0.0087515 -6.62931e-05 0.00897932 1.58597e-07 271.881 
-0.75 -0.25 -4.38307 3.76444 0.00917588 0.00874833 -7.09949e-05 0.00896943 1.58465e-07 271.808 
-0.75 -0.19 -4.51593 4.98554 0.00917165 0.00873978 -9.17692e-05 0.0089679 1.58462e-07 271.766 
-0.79 -0.33 -3.60159 2.39232 0.00915927 0.00873049 -5.32108e-05 0.00895532 1.58225e-07 271.793 
-0.75 -0.33 -4.24597 2.52066 0.00917619 0.00875942 -4.02539e-05 0.00897488 1.58537e-07 271.849 
-0.81 -0.17 -3.5072 5.50685 0.00912669 0.00869501 -0.000113524 0.00892304 1.57779e-07 271.578 
-0.79 -0.17 -3.8475 5.58888 0.00913972 0.0087279 -0.000114996 0.00895001 1.58129e-07 271.795 
-0.75 -0.17 -4.42798 5.43095 0.00916528 0.00874063 -0.000103659 0.00896237 1.58297e-07 271.882 
-0.73 -0.31 -4.86775 2.92773 0.00918992 0.00877663 -4.99941e-05 0.00899484 1.58786e-07 272.027 
-0.73 -0.29 -4.77779 3.18942 0.00918556 0.00877208 -5.50733e-05 0.00898977 1.58785e-07 271.876 
-0.73 -0.27 -4.92207 3.35171 0.00919713 0.00877685 -6.514e-05 0.00899827 1.58842e-07 272.034 
-0.73 -0.25 -4.61653 3.82372 0.00918188 0.00877145 -6.76152e-05 0.00898688 1.58787e-07 271.785 
-0.73 -0.23 -4.87258 4.2089 0.00918682 0.00877151 -7.63278e-05 0.00898883 1.58835e-07 271.76 
-0.73 -0.21 -4.88115 4.42252 0.00917714 0.00876337 -9.27844e-05 0.00898396 1.58647e-07 271.936 
-0.73 -0.19 -4.90298 4.71058 0.00917369 0.00877297 -9.90482e-05 0.00898112 1.58599e-07 271.932 
-0.79 -0.05 -3.39259 7.65073 0.0090594 0.00871992 -0.00015255 0.00890429 1.57421e-07 271.624 
-0.87 -0.03 -2.17568 8.27063 0.00900274 0.00863086 -0.000174256 0.00883534 1.56371e-07 271.329 
-0.83 -0.05 -2.71191 7.99992 0.00903631 0.00868141 -0.000152656 0.00888214 1.57105e-07 271.493 
-0.91 -0.03 -1.54327 8.33475 0.00899305 0.00862443 -0.000188137 0.0088324 1.56243e-07 271.462 
-0.81 -0.05 -2.96533 7.61382 0.00905204 0.00869701 -0.000147426 0.00889598 1.57348e-07 271.495 
-0.89 -0.03 -1.83638 8.23836 0.00899958 0.00863167 -0.000176535 0.00883535 1.5636e-07 271.348 
-0.77 -0.05 -3.73336 7.29849 0.00906451 0.00872154 -0.000156273 0.00891063 1.57524e-07 271.639 
-0.85 -0.03 -2.50033 8.17936 0.0090083 0.00864623 -0.000173621 0.00885076 1.56603e-07 271.401 
-0.75 -0.05 -3.99987 7.10667 0.00906966 0.00874938 -0.000157293 0.0089223 1.57658e-07 271.764 
-0.83 -0.03 -2.70516 8.31528 0.00902484 0.00867097 -0.000164256 0.0088696 1.5693e-07 271.412 
-0.81 -0.03 -3.11978 7.90403 0.00903359 0.00869534 -0.000158788 0.00888108 1.5709e-07 271.487 
-0.79 -0.03 -3.21301 8.05781 0.00904449 0.00872137 -0.000158279 0.00889928 1.57429e-07 271.456 
-0.77 -0.03 -3.65766 7.59715 0.009052 0.00872407 -0.00016026 0.0089017 1.5743e-07 271.528 
-0.95 -0.17 -0.706323 5.24518 0.00908235 0.00869948 -0.000142783 0.00890227 1.5742e-07 271.564 
-0.99 -0.15 -0.144132 4.98707 0.00903734 0.00870633 -0.000172855 0.00889035 1.57169e-07 271.633 
-0.89 -0.17 -2.05351 5.86336 0.00910532 0.00867516 -0.000125031 0.00890818 1.57364e-07 271.84 
-0.97 -0.15 -0.501826 5.42904 0.00906211 0.0087032 -0.00016629 0.00889457 1.57227e-07 271.662 
-0.95 -0.15 -0.857427 5.66504 0.00907277 0.00868575 -0.00015183 0.00888968 1.57177e-07 271.598 
-0.93 -0.15 -1.1708 6.07629 0.00907694 0.00867205 -0.000140564 0.00888972 1.5728e-07 271.422 
-0.83 -0.17 -3.07172 5.61045 0.00912686 0.00870061 -0.000108432 0.00893013 1.57793e-07 271.769 
-0.91 -0.15 -1.48011 6.15778 0.00908819 0.00867961 -0.000138615 0.00890361 1.57401e-07 271.637 
-0.99 -0.13 -0.221966 5.35767 0.00904088 0.00870469 -0.000188517 0.0088873 1.57092e-07 271.674 
-0.89 -0.15 -1.70182 6.21469 0.00908718 0.00866064 -0.000129349 0.00889177 1.57184e-07 271.65 
-0.97 -0.13 -0.531373 5.81669 0.00904704 0.00868529 -0.000174898 0.00888295 1.57117e-07 271.496 
-0.87 -0.15 -2.34797 6.13158 0.00909847 0.00868036 -0.000125693 0.00891048 1.57419e-07 271.816 
-0.95 -0.13 -0.995332 6.06077 0.00905904 0.00867146 -0.000163573 0.00888119 1.57138e-07 271.406 
-0.77 -0.17 -4.17423 5.31307 0.00915294 0.00872436 -0.000104178 0.00895604 1.58229e-07 271.807 
-0.85 -0.15 -2.68761 6.2516 0.00911574 0.00867693 -0.000118153 0.00891339 1.57635e-07 271.531 
-0.93 -0.13 -1.21298 6.19915 0.00907935 0.0086725 -0.000155743 0.00889573 1.5725e-07 271.658 
-0.83 -0.15 -2.99545 5.98712 0.00912487 0.00869291 -0.000116831 0.0089242 1.57772e-07 271.625 
-0.91 -0.13 -1.54457 6.4814 0.00908257 0.00866258 -0.000145058 0.00889174 1.57229e-07 271.571 
-0.99 -0.11 -0.0993672 5.66383 0.00904188 0.00869519 -0.000187559 0.00888369 1.5699e-07 271.739 
-0.81 -0.15 -3.40963 5.90161 0.00913163 0.0087076 -0.000118495 0.00893244 1.57928e-07 271.608 
-0.89 -0.13 -1.94675 6.65696 0.0090897 0.00866549 -0.000133532 0.00889351 1.57265e-07 271.563 
-0.97 -0.11 -0.525514 6.2174 0.00903683 0.00867529 -0.000180322 0.00887579 1.56987e-07 271.503 
-0.79 -0.15 -3.76456 5.83635 0.00913135 0.00872048 -0.000121277 0.00894353 1.58132e-07 271.593 
-0.87 -0.13 -2.31494 6.71328 0.00909442 0.00866837 -0.000135057 0.00889895 1.57414e-07 271.472 
-0.95 -0.11 -0.79152 6.35236 0.00904415 0.00866684 -0.00017546 0.00887268 1.57078e-07 271.25 
-0.77 -0.15 -4.1306 5.68637 0.00913334 0.00872001 -0.000116638 0.0089422 1.58128e-07 271.56 
-0.85 -0.13 -2.69507 6.40671 0.00910041 0.00867395 -0.000128222 0.00890284 1.5747e-07 271.495 
-0.93 -0.11 -1.27642 6.68003 0.00905211 0.00865866 -0.000166618 0.00887301 1.57026e-07 271.35 
-0.75 -0.15 -4.39863 5.54542 0.00914272 0.00874255 -0.000112964 0.00895426 1.58296e-07 271.637 
-0.83 -0.13 -2.98685 6.37807 0.00911139 0.00869149 -0.000129302 0.00891742 1.57539e-07 271.82 
-0.91 -0.11 -1.66392 6.84962 0.00905997 0.00864929 -0.000152364 0.00887519 1.57017e-07 271.432 
-0.99 -0.09 -0.106545 5.88914 0.00900636 0.00868445 -0.000199279 0.00885955 1.5675e-07 271.416 
-0.81 -0.13 -3.45684 6.36119 0.00911374 0.00870452 -0.000121891 0.00892715 1.57867e-07 271.551 
-0.89 -0.11 -2.0102 7.03307 0.00907448 0.00866091 -0.000144778 0.00888633 1.57265e-07 271.345 
-0.97 -0.09 -0.334605 6.68348 0.00902882 0.00866743 -0.000189459 0.00886705 1.56821e-07 271.523 
-0.79 -0.13 -3.77459 6.22543 0.00912147 0.00871756 -0.000119563 0.00893522 1.57943e-07 271.667 
-0.87 -0.11 -2.2541 6.9874 0.00908281 0.0086643 -0.000139798 0.00889328 1.57328e-07 271.448 
-0.95 -0.09 -0.806448 6.72994 0.00903751 0.00865971 -0.00017978 0.00887169 1.56852e-07 271.61 
-0.77 -0.13 -4.02529 6.01017 0.00912286 0.00871632 -0.000119413 0.00893248 1.57985e-07 271.51 
-0.85 -0.11 -2.63085 6.85171 0.00908597 0.00867287 -0.000133338 0.00889469 1.57418e-07 271.336 
-0.93 -0.09 -1.12023 6.95511 0.00904139 0.00864793 -0.000172436 0.00886867 1.56967e-07 271.319 
-0.83 -0.11 -3.1196 6.80491 0.00908583 0.00868428 -0.000130225 0.00890397 1.57509e-07 271.462 
-0.91 -0.09 -1.43642 7.24245 0.00904452 0.00863968 -0.000161451 0.00886056 1.56857e-07 271.261 
-0.99 -0.07 -0.211283 6.16246 0.00900567 0.00867901 -0.000204902 0.00885884 1.567e-07 271.481 
-0.81 -0.11 -3.38326 6.5774 0.00909603 0.00870616 -0.000131192 0.00891935 1.57533e-07 271.889 
-0.89 -0.09 -1.87571 7.39152 0.00905516 0.00865311 -0.000158566 0.00887423 1.57058e-07 271.333 
-0.97 -0.07 -0.511087 6.9513 0.00899922 0.00865517 -0.000201697 0.00884597 1.5648e-07 271.467 
-0.79 -0.11 -3.6499 6.59804 0.00910335 0.00871227 -0.000130379 0.00892623 1.5784e-07 271.569 
-0.87 -0.09 -2.10216 7.19644 0.00906882 0.00865777 -0.000147706 0.0088849 1.57263e-07 271.304 
-0.95 -0.07 -0.748079 7.17314 0.00900038 0.00865147 -0.000186994 0.00884999 1.5652e-07 271.522 
-0.77 -0.11 -4.02246 6.21485 0.00912089 0.00871594 -0.00013292 0.00893316 1.57955e-07 271.582 
-0.85 -0.09 -2.39803 7.24106 0.00907795 0.00866848 -0.000142172 0.00889036 1.57269e-07 271.461 
-0.93 -0.07 -1.24721 7.39697 0.00901277 0.00863574 -0.000179176 0.00885117 1.56657e-07 271.32 
-0.75 -0.11 -4.40413 6.09549 0.00913549 0.00874954 -0.000130467 0.00895639 1.58311e-07 271.677 
-0.83 -0.09 -2.72273 7.21772 0.00908519 0.00868113 -0.00013719 0.00890173 1.57424e-07 271.54 
-0.91 -0.07 -1.60232 7.59136 0.00902731 0.00863676 -0.000173483 0.00885734 1.56692e-07 271.449 
-0.99 -0.05 -0.142882 6.59384 0.0089814 0.00866847 -0.000214277 0.00884113 1.56411e-07 271.439 
-0.81 -0.09 -3.24694 6.97976 0.00909421 0.00870881 -0.000139494 0.0089175 1.57672e-07 271.594 
-0.89 -0.07 -1.88863 7.66324 0.00903599 0.00864576 -0.000167585 0.00886641 1.56932e-07 271.311 
-0.97 -0.05 -0.570871 7.12901 0.00899668 0.00864805 -0.000202873 0.00884587 1.56516e-07 271.402 
-0.79 -0.09 -3.67175 6.88617 0.00909528 0.00871301 -0.000137357 0.00891835 1.57705e-07 271.562 
-0.87 -0.07 -2.27468 7.57911 0.00904043 0.00864484 -0.000156358 0.00886291 1.56765e-07 271.492 
-0.95 -0.05 -0.84897 7.58504 0.00900457 0.00864106 -0.000195305 0.00884537 1.56486e-07 271.438 
-0.77 -0.09 -4.02533 6.67452 0.00909436 0.00871784 -0.00013546 0.00892147 1.57758e-07 271.566 
-0.85 -0.07 -2.51421 7.48054 0.00904822 0.00865873 -0.000149223 0.00887678 1.56984e-07 271.538 
-0.93 -0.05 -1.21741 7.83557 0.00900318 0.00862728 -0.000182161 0.00884149 1.56481e-07 271.327 
-0.75 -0.09 -4.36311 6.51158 0.00909378 0.00874617 -0.000143911 0.00893447 1.57938e-07 271.652 
-0.83 -0.07 -3.00206 7.7406 0.00905891 0.0086868 -0.000145487 0.0088901 1.57088e-07 271.765 
-0.91 -0.05 -1.59062 7.93621 0.00900498 0.0086305 -0.000176907 0.00884228 1.56481e-07 271.353 
-0.99 -0.03 -0.225816 6.99004 0.00895631 0.00865197 -0.000226266 0.00882167 1.56094e-07 271.391 
-0.81 -0.07 -3.2723 7.39741 0.00905841 0.00870031 -0.000144444 0.00889881 1.57315e-07 271.64 
-0.89 -0.05 -1.83473 7.9802 0.00900647 0.00863699 -0.00017378 0.00884629 1.5658e-07 271.303 
-0.97 -0.03 -0.497857 7.47012 0.00896689 0.00863534 -0.000210221 0.00882296 1.56217e-07 271.217 