ITEM: TIMESTEP
990500
ITEM: NUMBER OF CELLS
5000
ITEM: BOX BOUNDS ss ss pp
-1 1
-0.5 0.5
-0.5 0.5
ITEM: CELLS xc yc f_U[*] f_V[*] f_Tau[1] f_Tau[2] f_Tau[3] f_Press[*] f_Mrho[*] f_Ttra[*] 
-0.99 -0.49 -0.20067 0.303826 0.00899485 0.00874768 -2.70856e-05 0.00888059 1.56643e-07 272.246 
-0.97 -0.49 -0.563047 0.0647983 0.00899063 0.00874634 -3.12083e-05 0.00888162 1.56591e-07 272.369 
-0.95 -0.49 -0.65144 0.00219718 0.00899051 0.00874167 -3.26223e-05 0.0088758 1.56619e-07 272.141 
-0.93 -0.49 -0.839518 0.124963 0.00900032 0.00875057 -2.32131e-05 0.00888156 1.56752e-07 272.086 
-0.91 -0.49 -1.1588 0.107215 0.00900359 0.00872462 -2.10576e-05 0.0088674 1.56517e-07 272.06 
-0.99 -0.47 -0.215587 0.60009 0.0090196 0.00876889 -1.41714e-05 0.00890284 1.56977e-07 272.347 
-0.89 -0.49 -1.51827 0.242873 0.00902182 0.00874111 -2.61729e-05 0.00888312 1.56796e-07 272.058 
-0.97 -0.47 -0.425379 0.33231 0.00901666 0.00874559 -3.23083e-05 0.00889478 1.56767e-07 272.465 
-0.87 -0.49 -1.68126 -0.0175788 0.00904246 0.00876737 -1.46852e-05 0.00890472 1.57127e-07 272.145 
-0.95 -0.47 -0.765611 0.288978 0.00902364 0.00874661 -3.36753e-05 0.00889355 1.56796e-07 272.376 
-0.85 -0.49 -1.83422 0.127452 0.00904535 0.00875385 -7.35139e-06 0.00890013 1.56886e-07 272.422 
-0.93 -0.47 -1.0121 0.280712 0.00902682 0.00874245 -3.55851e-05 0.00889054 1.56772e-07 272.327 
-0.83 -0.49 -1.88531 -0.032241 0.00904946 0.00876314 -2.43324e-07 0.00891203 1.57154e-07 272.321 
-0.91 -0.47 -1.30786 0.639475 0.00904058 0.00873255 -3.2652e-05 0.00889102 1.56935e-07 272.059 
-0.99 -0.45 -0.0950504 0.924372 0.00904429 0.00877049 -2.52448e-05 0.00891742 1.57176e-07 272.448 
-0.81 -0.49 -2.12441 0.289889 0.00905953 0.00877093 1.31319e-05 0.00892234 1.57324e-07 272.343 
-0.89 -0.47 -1.63972 0.423367 0.00904124 0.00873807 -3.23611e-05 0.00888792 1.56944e-07 271.948 
-0.97 -0.45 -0.406312 0.625681 0.00904831 0.00875925 -3.22694e-05 0.00891241 1.57142e-07 272.353 
-0.79 -0.49 -2.52004 0.0722971 0.00906804 0.00877941 1.31165e-05 0.00893042 1.57523e-07 272.244 
-0.87 -0.47 -1.89412 0.240938 0.0090421 0.00874917 -2.54711e-05 0.00890578 1.57139e-07 272.156 
-0.95 -0.45 -0.791965 0.703647 0.00905023 0.00874632 -3.78782e-05 0.00890545 1.56956e-07 272.464 
-0.77 -0.49 -2.5276 -0.0260181 0.00906943 0.00879191 2.30232e-05 0.0089407 1.57622e-07 272.386 
-0.85 -0.47 -2.0593 0.293367 0.00905114 0.00875002 -1.14763e-05 0.00891109 1.5709e-07 272.404 
-0.93 -0.45 -1.24919 0.534731 0.00905901 0.00873785 -4.56127e-05 0.00890274 1.57064e-07 272.193 
-0.83 -0.47 -2.43637 0.135182 0.00906068 0.00875594 -9.09689e-06 0.00891915 1.57236e-07 272.397 
-0.91 -0.45 -1.37566 0.810795 0.00905803 0.00873591 -3.78408e-05 0.00889878 1.5716e-07 271.905 
-0.99 -0.43 -0.179931 1.1818 0.0090653 0.00876734 -3.49924e-05 0.0089327 1.57658e-07 272.081 
-0.81 -0.47 -2.58662 0.569257 0.00907158 0.00876028 -3.34831e-06 0.00892899 1.57428e-07 272.365 
-0.89 -0.45 -1.74988 0.806016 0.00907033 0.00872819 -3.67724e-05 0.00889897 1.5712e-07 271.98 
-0.97 -0.43 -0.484635 0.996444 0.00908056 0.00876947 -3.73543e-05 0.00893506 1.57562e-07 272.318 
-0.79 -0.47 -2.8588 0.42903 0.009085 0.00877241 9.00782e-06 0.00894502 1.57734e-07 272.324 
-0.87 -0.45 -2.09044 0.546539 0.00907567 0.00874208 -2.33506e-05 0.00891235 1.57208e-07 272.237 
-0.95 -0.43 -0.753446 0.973448 0.00908533 0.00875204 -4.45265e-05 0.00892099 1.57429e-07 272.119 
-0.77 -0.47 -3.24411 0.102058 0.00909463 0.00878666 1.16961e-05 0.00895013 1.57899e-07 272.195 
-0.85 -0.45 -2.38131 0.465074 0.00908416 0.00874153 -2.19054e-05 0.00892071 1.57307e-07 272.32 
-0.93 -0.43 -0.93326 0.951834 0.00908495 0.00873958 -3.95144e-05 0.00891522 1.57309e-07 272.15 
-0.75 -0.47 -3.30803 0.36541 0.00910262 0.0087974 1.70786e-05 0.00895509 1.57761e-07 272.585 
-0.83 -0.45 -2.62032 0.487317 0.00909656 0.00875646 -2.04899e-05 0.00893404 1.57607e-07 272.209 
-0.91 -0.43 -1.49669 1.1072 0.0090872 0.00873569 -4.38894e-05 0.00891164 1.57271e-07 272.107 
-0.99 -0.41 -0.20292 1.53666 0.00908216 0.00876684 -4.94788e-05 0.00893737 1.5774e-07 272.081 
-0.81 -0.45 -2.94142 0.86748 0.0090962 0.00874482 -1.22535e-05 0.00893131 1.57573e-07 272.185 
-0.89 -0.43 -1.56425 1.0645 0.00908109 0.00872354 -4.17739e-05 0.00890559 1.57243e-07 271.971 
-0.97 -0.41 -0.398163 1.15093 0.0090919 0.00876869 -4.83365e-05 0.00893618 1.57585e-07 272.313 
-0.79 -0.45 -3.0628 0.629552 0.00910526 0.00876404 1.7333e-07 0.0089466 1.57796e-07 272.265 
-0.87 -0.43 -1.84724 0.825122 0.00909047 0.00873248 -4.12358e-05 0.00891969 1.5734e-07 272.233 
-0.95 -0.41 -0.585428 1.26579 0.00909957 0.00875974 -4.49011e-05 0.00893942 1.57624e-07 272.343 
-0.77 -0.45 -3.41281 0.514648 0.00911336 0.00878216 6.63987e-06 0.00895529 1.57829e-07 272.472 
-0.85 -0.43 -2.18944 0.863774 0.00910621 0.00874132 -3.07374e-05 0.00893059 1.57572e-07 272.164 
-0.93 -0.41 -1.20304 1.42285 0.00909772 0.0087295 -4.35707e-05 0.008926 1.57494e-07 272.16 
-0.75 -0.45 -3.68583 0.491497 0.00911267 0.00878815 1.21266e-05 0.00895698 1.5796e-07 272.298 
-0.83 -0.43 -2.63453 0.830636 0.00910565 0.00874559 -1.81159e-05 0.00893134 1.57542e-07 272.239 
-0.91 -0.41 -1.34352 1.3294 0.00910234 0.00873821 -4.01435e-05 0.00892609 1.57641e-07 271.908 
-0.99 -0.39 -0.128274 1.80702 0.00908386 0.00877065 -5.2312e-05 0.00894044 1.57883e-07 271.927 
-0.81 -0.43 -3.04082 1.06789 0.00911347 0.00873975 -1.71072e-05 0.00893927 1.57737e-07 272.145 
-0.89 -0.41 -1.64323 1.29632 0.00910358 0.00873102 -4.46388e-05 0.00892281 1.57396e-07 272.231 
-0.97 -0.39 -0.524514 1.40002 0.0090934 0.008771 -5.31355e-05 0.00893897 1.57766e-07 272.084 
-0.79 -0.43 -3.39473 0.909294 0.00912226 0.00875345 -9.35406e-06 0.00895064 1.57923e-07 272.17 
-0.87 -0.41 -2.05789 1.26119 0.00910421 0.00872567 -4.20204e-05 0.00892701 1.57394e-07 272.364 
-0.95 -0.39 -0.860981 1.60722 0.00909121 0.00874971 -4.90145e-05 0.00892654 1.57477e-07 272.205 
-0.77 -0.43 -3.62955 0.783642 0.0091324 0.00877484 1.55431e-06 0.00896269 1.58103e-07 272.225 
-0.85 -0.41 -2.62883 1.19274 0.00910138 0.00873586 -3.95004e-05 0.0089307 1.57637e-07 272.056 
-0.93 -0.39 -0.795008 1.71809 0.00910222 0.00873169 -4.42497e-05 0.00892632 1.57521e-07 272.121 
-0.83 -0.41 -2.79797 1.2213 0.00911494 0.00873214 -3.06685e-05 0.00893009 1.57618e-07 272.07 
-0.91 -0.39 -1.2509 1.7184 0.0091101 0.00873766 -4.86305e-05 0.00893368 1.57644e-07 272.134 
-0.99 -0.37 0.0649093 2.04477 0.00908158 0.00878277 -6.33214e-05 0.00894446 1.57985e-07 271.874 
-0.81 -0.41 -2.97114 1.37862 0.00912499 0.00873513 -2.06526e-05 0.0089378 1.57759e-07 272.061 
-0.89 -0.39 -1.58293 1.56861 0.00911545 0.0087354 -4.7447e-05 0.00893713 1.5765e-07 272.228 
-0.97 -0.37 -0.395548 1.9664 0.00908923 0.00875777 -6.20972e-05 0.00893599 1.57738e-07 272.042 
-0.79 -0.41 -3.27887 1.12967 0.0091369 0.0087499 -1.95352e-05 0.00895526 1.58019e-07 272.145 
-0.87 -0.39 -1.92114 1.65567 0.00911849 0.00871607 -4.57233e-05 0.00893132 1.57662e-07 272.032 
-0.95 -0.37 -0.782133 1.72298 0.00910544 0.0087469 -5.36964e-05 0.00893492 1.57764e-07 271.965 
-0.77 -0.41 -3.64079 1.18716 0.00914115 0.00876889 -1.67056e-05 0.00896922 1.58288e-07 272.106 
-0.85 -0.39 -2.22961 1.63614 0.00912932 0.00873601 -4.02855e-05 0.00894428 1.57979e-07 271.879 
-0.93 -0.37 -1.23585 1.93517 0.00911083 0.00873416 -5.84463e-05 0.00893398 1.57729e-07 271.997 
-0.75 -0.41 -3.91356 1.02684 0.00915628 0.00878388 -8.13975e-06 0.00898162 1.58438e-07 272.224 
-0.83 -0.39 -2.66394 1.49688 0.00912699 0.00872233 -4.07593e-05 0.0089316 1.57694e-07 271.984 
-0.91 -0.37 -1.3868 1.95699 0.00912259 0.00873276 -5.92918e-05 0.00893774 1.57632e-07 272.278 
-0.99 -0.35 -0.198365 2.17305 0.00909946 0.00877928 -7.61378e-05 0.00895116 1.58202e-07 271.705 
-0.81 -0.39 -2.95473 1.52375 0.00913433 0.0087324 -3.63875e-05 0.00894328 1.57742e-07 272.258 
-0.89 -0.37 -1.66361 1.96937 0.00913031 0.00873156 -5.0916e-05 0.00894062 1.57887e-07 271.927 
-0.97 -0.35 -0.367462 2.41132 0.00910813 0.00875243 -6.91661e-05 0.00894373 1.5791e-07 271.982 
-0.79 -0.39 -3.22695 1.58396 0.00914124 0.00873689 -2.60232e-05 0.00895367 1.58083e-07 271.985 
-0.87 -0.37 -2.15732 2.14595 0.00913113 0.00871648 -4.94168e-05 0.00893406 1.57633e-07 272.165 
-0.95 -0.35 -0.74466 2.07846 0.00911543 0.00873967 -6.64733e-05 0.00893495 1.57757e-07 271.978 
-0.77 -0.39 -3.70376 1.53132 0.0091519 0.00877241 -1.99698e-05 0.00897723 1.58424e-07 272.115 
-0.85 -0.37 -2.58121 2.01855 0.00913323 0.00872866 -5.02864e-05 0.00893817 1.57836e-07 271.94 
-0.93 -0.35 -1.15859 2.32736 0.00912269 0.00873733 -6.4494e-05 0.00893847 1.57818e-07 271.981 
-0.83 -0.37 -3.00407 1.81095 0.0091402 0.00871838 -4.02284e-05 0.00893347 1.57775e-07 271.901 
-0.91 -0.35 -1.55468 2.32809 0.0091166 0.00873088 -5.56878e-05 0.0089268 1.57562e-07 272.067 
-0.81 -0.37 -3.2988 1.70632 0.00914522 0.00872709 -3.464e-05 0.00894967 1.57962e-07 272.073 
-0.89 -0.35 -1.96017 2.42393 0.00911656 0.00872358 -5.69063e-05 0.00892503 1.57551e-07 272.032 
-0.79 -0.37 -3.66192 1.98381 0.00914788 0.00873396 -3.43537e-05 0.00896087 1.58251e-07 271.916 
-0.87 -0.35 -2.318 2.3816 0.00912979 0.00871808 -5.65202e-05 0.00893537 1.57731e-07 272.036 
-0.77 -0.37 -3.85098 2.01619 0.00915556 0.00876738 -2.87881e-05 0.00897163 1.58225e-07 272.287 
-0.85 -0.35 -2.67985 2.51051 0.00914004 0.00871954 -5.26698e-05 0.00893578 1.57866e-07 271.816 
-0.83 -0.35 -3.04209 2.15204 0.0091429 0.00871459 -4.72711e-05 0.00893506 1.57862e-07 271.801 
-0.81 -0.35 -3.47161 2.1232 0.00915146 0.00872731 -4.79916e-05 0.00895207 1.57989e-07 272.099 
-0.79 -0.35 -3.75004 2.2146 0.00916687 0.00873275 -4.36321e-05 0.00896173 1.5835e-07 271.772 
-0.77 -0.35 -3.93448 2.26656 0.00917754 0.00875303 -3.81919e-05 0.00897564 1.58346e-07 272.201 
-0.75 -0.35 -4.2019 2.25217 0.00918728 0.00877569 -2.83269e-05 0.00899166 1.58696e-07 272.084 
-0.75 -0.49 -2.7842 0.20726 0.00907702 0.00879655 2.37638e-05 0.00893901 1.57631e-07 272.318 
-0.75 -0.43 -3.85629 0.753811 0.00914426 0.00878782 -1.95295e-07 0.00897624 1.58223e-07 272.429 
-0.75 -0.39 -4.35981 1.42422 0.00915268 0.00877775 -2.23081e-05 0.00897921 1.58447e-07 272.134 
-0.75 -0.37 -4.09878 1.86856 0.00916087 0.00877539 -2.05075e-05 0.00897771 1.58382e-07 272.201 
-0.77 -0.33 -3.87839 2.52904 0.00916385 0.00874555 -5.04153e-05 0.00896247 1.58397e-07 271.713 
-0.73 -0.49 -3.08097 0.160576 0.00908313 0.008814 2.50624e-05 0.00895667 1.57927e-07 272.346 
-0.73 -0.47 -3.33772 0.272282 0.00910725 0.00880356 2.39155e-05 0.00897004 1.58128e-07 272.406 
-0.73 -0.45 -3.85069 0.386773 0.00912694 0.00880466 1.32842e-05 0.00897687 1.58291e-07 272.332 
-0.73 -0.43 -4.28734 0.866805 0.00914999 0.00880444 7.49546e-07 0.00898796 1.58433e-07 272.424 
-0.73 -0.41 -4.33619 1.19043 0.00916709 0.00880446 -6.98243e-06 0.00899589 1.58661e-07 272.273 
-0.73 -0.39 -4.38727 1.51931 0.00916054 0.00879655 -1.04239e-05 0.00898495 1.5854e-07 272.149 
-0.73 -0.37 -4.63789 1.7881 0.00916265 0.00878055 -2.46837e-05 0.00897817 1.58533e-07 271.956 
-0.73 -0.35 -4.57742 2.03789 0.00918572 0.00878229 -2.46838e-05 0.00898738 1.586e-07 272.12 
-0.81 -0.29 -3.27534 3.3064 0.00915865 0.0087164 -6.71399e-05 0.00894417 1.58008e-07 271.826 
-0.89 -0.27 -1.85815 3.84254 0.0091269 0.00869887 -8.83671e-05 0.00892882 1.57669e-07 271.943 
-0.97 -0.25 -0.452166 3.79367 0.00909108 0.00872154 -0.000111086 0.00891809 1.57669e-07 271.616 
-0.83 -0.29 -2.94224 3.47833 0.00914715 0.00871823 -6.90961e-05 0.00894238 1.57846e-07 272.051 
-0.91 -0.27 -1.41129 3.89086 0.0091261 0.00870588 -8.91302e-05 0.00892906 1.57675e-07 271.94 
-0.99 -0.25 -0.226039 3.79285 0.00908944 0.00875693 -0.000118687 0.0089365 1.58006e-07 271.596 
-0.79 -0.29 -3.5923 3.21606 0.00916929 0.00872598 -6.13079e-05 0.008956 1.58201e-07 271.854 
-0.87 -0.27 -2.36674 3.98184 0.0091346 0.0087066 -7.35065e-05 0.00894002 1.57843e-07 271.985 
-0.95 -0.25 -0.739464 3.80899 0.00910365 0.00871906 -0.000104933 0.00892716 1.5782e-07 271.632 
-0.77 -0.29 -3.96761 3.30549 0.00918015 0.00874012 -5.38525e-05 0.00896999 1.58414e-07 271.911 
-0.85 -0.27 -2.68061 3.73432 0.00914672 0.00871152 -7.32772e-05 0.00894221 1.57919e-07 271.919 
-0.93 -0.25 -1.17142 4.09122 0.00910379 0.00870647 -0.000107928 0.00892146 1.57586e-07 271.861 
-0.75 -0.29 -4.46129 3.21513 0.00918451 0.00875793 -5.80618e-05 0.00898411 1.58619e-07 271.988 
-0.83 -0.27 -3.08958 3.64103 0.00915644 0.00872474 -7.33746e-05 0.00895255 1.58058e-07 271.994 
-0.91 -0.25 -1.55743 4.26193 0.00911655 0.00869614 -0.000100577 0.00892049 1.57598e-07 271.812 
-0.99 -0.23 -0.0916928 4.06118 0.00906245 0.00874766 -0.000126981 0.00892057 1.57679e-07 271.675 
-0.81 -0.27 -3.48679 3.74517 0.0091596 0.00871252 -8.00074e-05 0.00894417 1.58026e-07 271.796 
-0.89 -0.25 -2.00729 4.22537 0.00912685 0.00869309 -8.74371e-05 0.00892961 1.57678e-07 271.951 
-0.97 -0.23 -0.420811 4.06052 0.00908187 0.00872744 -0.000120692 0.00891719 1.57668e-07 271.591 
-0.79 -0.27 -4.03082 3.66798 0.00917124 0.00871552 -7.04781e-05 0.00894795 1.58244e-07 271.536 
-0.87 -0.25 -2.20023 4.32795 0.00913872 0.00870132 -8.84795e-05 0.00893967 1.57949e-07 271.791 
-0.95 -0.23 -0.897762 4.31126 0.00908997 0.00870903 -0.000120206 0.00891365 1.57567e-07 271.656 
-0.77 -0.27 -4.37689 3.63506 0.00917692 0.00874064 -6.20624e-05 0.00897006 1.58555e-07 271.672 
-0.85 -0.25 -2.62275 4.14876 0.00915343 0.00871373 -8.91681e-05 0.00894681 1.57921e-07 272.056 
-0.93 -0.23 -1.27621 4.43171 0.00910497 0.00870731 -0.000113659 0.00892267 1.57533e-07 271.991 
-0.83 -0.25 -3.08558 4.08711 0.00916191 0.00871125 -8.14916e-05 0.0089401 1.58075e-07 271.587 
-0.91 -0.23 -1.58896 4.53499 0.00910723 0.00868123 -0.000103764 0.00891865 1.57434e-07 272.039 
-0.99 -0.21 -0.0231378 4.26253 0.00909307 0.00874521 -0.000133635 0.00893273 1.57911e-07 271.645 
-0.81 -0.25 -3.39886 4.1628 0.00916736 0.00872319 -7.58191e-05 0.00895387 1.58212e-07 271.77 
-0.89 -0.23 -1.93263 4.7888 0.00911989 0.00869286 -0.00010333 0.00892404 1.57566e-07 271.976 
-0.97 -0.21 -0.266612 4.42988 0.00909923 0.0087101 -0.000130618 0.00891597 1.57631e-07 271.617 
-0.79 -0.25 -3.86286 4.22815 0.00915608 0.00870622 -7.81341e-05 0.00894241 1.58134e-07 271.555 
-0.87 -0.23 -2.48097 4.55956 0.00913359 0.00869869 -0.000104642 0.00892923 1.57756e-07 271.806 
-0.95 -0.21 -0.592996 4.70187 0.00910614 0.00871243 -0.000124739 0.00892351 1.57587e-07 271.923 
-0.77 -0.25 -4.29141 3.84567 0.00916307 0.00873473 -7.67244e-05 0.00895502 1.58289e-07 271.672 
-0.85 -0.23 -2.69619 4.63549 0.00913808 0.00870961 -9.20373e-05 0.00893244 1.57786e-07 271.851 
-0.93 -0.21 -1.16838 4.86188 0.00910511 0.00869392 -0.000119695 0.00891521 1.57631e-07 271.595 
-0.83 -0.23 -3.07601 4.4757 0.00913324 0.00869945 -8.54478e-05 0.00892594 1.57784e-07 271.658 
-0.91 -0.21 -1.50574 4.78007 0.00911462 0.00868168 -0.00011541 0.00891828 1.57584e-07 271.769 
-0.99 -0.19 -0.20511 4.45923 0.0090788 0.0087349 -0.000148155 0.00892192 1.57664e-07 271.742 
-0.81 -0.23 -3.53588 4.46978 0.00914309 0.00871582 -8.03608e-05 0.00894212 1.57965e-07 271.838 
-0.89 -0.21 -1.8138 5.2515 0.00912411 0.00869518 -0.00011332 0.00893159 1.57702e-07 271.971 
-0.97 -0.19 -0.546483 4.78425 0.00908764 0.00870233 -0.000138292 0.00890644 1.5748e-07 271.587 
-0.79 -0.23 -3.77678 4.61046 0.0091614 0.0087162 -7.92525e-05 0.00895168 1.58197e-07 271.73 
-0.87 -0.21 -2.16473 5.02343 0.00912607 0.00868355 -0.00011059 0.00892114 1.57756e-07 271.56 
-0.95 -0.19 -0.809231 5.02964 0.00909888 0.00870901 -0.000130194 0.00891414 1.57582e-07 271.646 
-0.77 -0.23 -4.13457 4.31213 0.00916628 0.00873204 -8.89508e-05 0.00895934 1.58331e-07 271.732 
-0.85 -0.21 -2.78091 4.96461 0.00913524 0.00869701 -9.60293e-05 0.00893153 1.57791e-07 271.816 
-0.93 -0.19 -0.926365 5.30992 0.00910972 0.00869059 -0.000124966 0.0089173 1.57629e-07 271.661 
-0.75 -0.23 -4.56412 4.03866 0.00917608 0.00874795 -8.29268e-05 0.0089709 1.58476e-07 271.833 
-0.83 -0.21 -3.15131 4.79837 0.00915193 0.00870244 -9.15295e-05 0.00893973 1.57855e-07 271.955 
-0.91 -0.19 -1.4144 5.25281 0.00911077 0.0086748 -0.000122297 0.00890887 1.57461e-07 271.694 
-0.81 -0.21 -3.46026 4.82029 0.00915316 0.00871231 -8.70055e-05 0.00895018 1.58171e-07 271.728 
-0.89 -0.19 -1.94402 5.55896 0.00911681 0.00868841 -0.000115954 0.0089196 1.57546e-07 271.875 
-0.79 -0.21 -3.75927 4.99257 0.00914836 0.0087157 -9.07156e-05 0.00894635 1.58217e-07 271.533 
-0.87 -0.19 -2.38115 5.44593 0.00911629 0.0086833 -0.000107777 0.0089169 1.57647e-07 271.619 
-0.77 -0.21 -4.22515 4.75661 0.00915958 0.00873609 -9.20217e-05 0.00895825 1.58335e-07 271.692 
-0.85 -0.19 -2.63405 5.38282 0.00911922 0.0086829 -0.000110334 0.00891843 1.57678e-07 271.611 
-0.75 -0.21 -4.67151 4.41513 0.00916236 0.0087419 -9.4091e-05 0.0089639 1.58438e-07 271.687 
-0.83 -0.19 -2.95416 5.12944 0.00912113 0.0087013 -0.000104208 0.00892812 1.57784e-07 271.723 
-0.81 -0.19 -3.2954 5.19629 0.00914196 0.00869898 -9.78672e-05 0.00893497 1.57957e-07 271.635 
-0.79 -0.19 -3.8664 5.33219 0.00916245 0.00873042 -9.62976e-05 0.00896084 1.58301e-07 271.828 
-0.77 -0.19 -4.17819 5.2608 0.00917002 0.00873494 -0.000102681 0.00896501 1.58447e-07 271.705 
-0.99 -0.33 -0.135191 2.46648 0.00910031 0.00877547 -8.541e-05 0.00894792 1.5802e-07 271.92 
-0.97 -0.33 -0.479304 2.54319 0.00911322 0.00874988 -8.19322e-05 0.00894232 1.57907e-07 271.944 
-0.91 -0.33 -1.67735 2.80346 0.00914614 0.00872639 -6.61758e-05 0.00893866 1.57789e-07 272.035 
-0.99 -0.31 -0.178967 2.82281 0.00908639 0.00876478 -9.60157e-05 0.00893702 1.57853e-07 271.875 
-0.97 -0.31 -0.416166 2.8456 0.00909519 0.00874766 -8.8267e-05 0.00893215 1.57938e-07 271.582 
-0.87 -0.33 -2.24701 2.78217 0.00915112 0.0087235 -6.09882e-05 0.00894814 1.57967e-07 272.018 
-0.95 -0.31 -0.946975 3.0779 0.00910315 0.00872372 -8.65667e-05 0.00892611 1.576e-07 271.98 
-0.85 -0.33 -2.40991 2.70817 0.00914274 0.00871014 -5.53066e-05 0.00893672 1.57648e-07 272.22 
-0.93 -0.31 -1.30436 3.05896 0.00912163 0.00873094 -8.42835e-05 0.00893895 1.57784e-07 272.054 
-0.91 -0.31 -1.50314 3.04494 0.00913361 0.00871557 -7.09106e-05 0.00894179 1.57716e-07 272.257 
-0.99 -0.29 -0.168474 3.12848 0.00908066 0.00876337 -0.000102941 0.00893736 1.57921e-07 271.769 
-0.81 -0.33 -3.42099 2.52634 0.00915581 0.0087258 -5.10289e-05 0.00895402 1.58117e-07 271.937 
-0.89 -0.31 -1.74742 3.05368 0.00913654 0.00871585 -6.21896e-05 0.00894058 1.57776e-07 272.117 
-0.97 -0.29 -0.503246 3.21208 0.00909134 0.00873511 -9.89617e-05 0.00892592 1.57651e-07 271.885 
-0.87 -0.31 -2.20724 3.09205 0.00914077 0.00871984 -6.30081e-05 0.00893798 1.5789e-07 271.841 
-0.95 -0.29 -0.746176 3.40728 0.0091044 0.00872472 -9.76656e-05 0.0089285 1.57627e-07 272.006 
-0.85 -0.31 -2.56298 2.87822 0.00914926 0.00870921 -5.96158e-05 0.00894158 1.57905e-07 271.924 
-0.93 -0.29 -1.07238 3.23959 0.00910712 0.00872191 -8.88584e-05 0.00892399 1.57556e-07 271.99 
-0.83 -0.31 -2.82176 3.17782 0.00915569 0.00871919 -5.65082e-05 0.00895054 1.57998e-07 272.038 
-0.91 -0.29 -1.30308 3.47193 0.00910462 0.00870348 -8.13668e-05 0.0089137 1.57445e-07 271.869 
-0.99 -0.27 -0.0675976 3.45003 0.00909495 0.00875907 -0.000112292 0.00894251 1.58088e-07 271.638 
-0.81 -0.31 -3.13888 2.98628 0.00915595 0.00871814 -5.8026e-05 0.00895274 1.58043e-07 272.027 
-0.89 -0.29 -1.71146 3.46588 0.00912085 0.00871215 -7.63132e-05 0.00892871 1.57626e-07 272.013 
-0.97 -0.27 -0.495909 3.50919 0.00909868 0.00873297 -0.000108142 0.00893126 1.57724e-07 271.923 
-0.79 -0.31 -3.63303 2.72709 0.00915978 0.00873102 -5.53217e-05 0.00895445 1.58252e-07 271.719 
-0.87 -0.29 -2.13314 3.49771 0.00913346 0.00871426 -6.29098e-05 0.00893717 1.5783e-07 271.92 
-0.95 -0.27 -0.661096 3.63877 0.00909971 0.00871735 -0.000100074 0.00892312 1.57543e-07 271.987 
-0.77 -0.31 -4.14185 2.90485 0.00916104 0.00874013 -5.18911e-05 0.0089525 1.58241e-07 271.678 
-0.85 -0.29 -2.65746 3.31342 0.00913708 0.00870797 -6.4702e-05 0.00893189 1.57789e-07 271.831 
-0.93 -0.27 -0.926329 3.57144 0.00911036 0.00870994 -9.35513e-05 0.00891985 1.57352e-07 272.218 
-0.95 -0.33 -0.793191 2.59852 0.00911986 0.00872678 -7.30587e-05 0.00893502 1.57803e-07 271.901 
-0.93 -0.33 -1.16067 2.71949 0.00913169 0.0087368 -6.55831e-05 0.00894028 1.57822e-07 272.029 
-0.89 -0.33 -2.14134 2.67699 0.00915289 0.00871966 -5.87847e-05 0.00894263 1.57808e-07 272.124 
-0.83 -0.33 -2.8219 2.76603 0.00914586 0.00871204 -5.68923e-05 0.00894403 1.57879e-07 272.044 
-0.75 -0.31 -4.43579 2.81702 0.00916525 0.00875454 -4.9966e-05 0.00897222 1.58379e-07 272.041 
-0.75 -0.27 -4.55066 3.69812 0.00919177 0.00875781 -6.61375e-05 0.00898309 1.58701e-07 271.817 
-0.75 -0.25 -4.5156 3.81124 0.00917468 0.00875749 -6.96838e-05 0.00896952 1.58453e-07 271.831 
-0.75 -0.19 -4.45685 4.80152 0.00916879 0.00873814 -9.48214e-05 0.00896608 1.58478e-07 271.684 
-0.79 -0.33 -3.58755 2.31217 0.00915714 0.00873355 -5.18423e-05 0.00895698 1.58263e-07 271.778 
-0.75 -0.33 -4.29496 2.53802 0.00917133 0.00876265 -3.76139e-05 0.00897658 1.58574e-07 271.837 
-0.81 -0.17 -3.64165 5.61866 0.00912566 0.00869154 -0.00011365 0.00892041 1.57723e-07 271.594 
-0.79 -0.17 -3.89386 5.75796 0.00913842 0.00873167 -0.000112513 0.00894997 1.58116e-07 271.816 
-0.75 -0.17 -4.52676 5.39218 0.00916325 0.00873792 -0.000104222 0.0089617 1.5824e-07 271.959 
-0.73 -0.31 -4.79639 2.92153 0.00918762 0.00877602 -4.87295e-05 0.00899271 1.58722e-07 272.071 
-0.73 -0.29 -4.7639 3.24626 0.0091824 0.00876869 -5.69702e-05 0.0089895 1.58738e-07 271.948 
-0.73 -0.27 -4.97211 3.41623 0.00919966 0.00877297 -6.75113e-05 0.00899792 1.58892e-07 271.938 
-0.73 -0.25 -4.6863 3.82438 0.00918024 0.008767 -6.63269e-05 0.00898144 1.58761e-07 271.664 
-0.73 -0.23 -4.86569 4.13315 0.00918647 0.00877058 -7.53284e-05 0.00898679 1.58871e-07 271.638 
-0.73 -0.21 -4.92097 4.36747 0.00917782 0.00876695 -9.31035e-05 0.00898327 1.58656e-07 271.899 
-0.73 -0.19 -4.94184 4.74732 0.00916957 0.00877423 -9.89651e-05 0.00898065 1.58654e-07 271.823 
-0.79 -0.05 -3.31572 7.64669 0.00905902 0.00871257 -0.000152719 0.00890026 1.57483e-07 271.393 
-0.87 -0.03 -2.18987 8.34319 0.00900375 0.00863003 -0.000178048 0.0088391 1.56423e-07 271.355 
-0.83 -0.05 -2.73162 8.00767 0.00904058 0.00867563 -0.000152755 0.00887954 1.57057e-07 271.496 
-0.91 -0.03 -1.66875 8.31758 0.00899388 0.00862711 -0.000188749 0.00883181 1.56242e-07 271.445 
-0.81 -0.05 -2.92836 7.68696 0.00905249 0.008696 -0.00014519 0.00889184 1.5731e-07 271.434 
-0.89 -0.03 -1.86461 8.44809 0.0089976 0.00862996 -0.000179657 0.00883277 1.56335e-07 271.313 
-0.77 -0.05 -3.68251 7.29134 0.00907168 0.00872611 -0.000153595 0.00891413 1.5764e-07 271.546 
-0.85 -0.03 -2.52981 8.18393 0.00900729 0.0086474 -0.000176104 0.00885063 1.56603e-07 271.396 
-0.75 -0.05 -3.93723 7.07282 0.00907683 0.00875311 -0.000159731 0.0089238 1.57756e-07 271.64 
-0.83 -0.03 -2.72123 8.34368 0.00902331 0.00866656 -0.000161837 0.00886638 1.56921e-07 271.329 
-0.81 -0.03 -3.10871 7.96374 0.00903382 0.00869414 -0.000157322 0.0088803 1.571e-07 271.444 
-0.79 -0.03 -3.20096 8.03555 0.00904714 0.00871659 -0.000157934 0.00889513 1.57404e-07 271.372 
-0.77 -0.03 -3.61584 7.53547 0.00905476 0.00872926 -0.000160855 0.00890137 1.57463e-07 271.462 
-0.95 -0.17 -0.741809 5.2763 0.00907965 0.0086923 -0.000144144 0.00889704 1.57335e-07 271.55 
-0.99 -0.15 -0.150771 4.95522 0.00903126 0.0087064 -0.000174061 0.00888869 1.57174e-07 271.574 
-0.89 -0.17 -1.98914 5.80646 0.00910362 0.00867357 -0.000121939 0.00890566 1.573e-07 271.873 
-0.97 -0.15 -0.487048 5.53116 0.00905033 0.00869874 -0.000165682 0.00888948 1.5718e-07 271.588 
-0.95 -0.15 -0.916311 5.72751 0.00906236 0.00867617 -0.000153847 0.00888327 1.57113e-07 271.514 
-0.93 -0.15 -1.27929 5.99965 0.00907207 0.00866881 -0.00013949 0.00888718 1.57243e-07 271.409 
-0.83 -0.17 -3.09211 5.60833 0.0091264 0.00870645 -0.000107958 0.00892994 1.57797e-07 271.756 
-0.91 -0.15 -1.50672 6.1919 0.0090921 0.00867783 -0.000136219 0.00890303 1.57335e-07 271.734 
-0.99 -0.13 -0.20546 5.32266 0.00904547 0.00870696 -0.000186226 0.00889061 1.57244e-07 271.511 
-0.89 -0.15 -1.78972 6.23411 0.00909391 0.00866286 -0.000127647 0.008895 1.57222e-07 271.684 
-0.97 -0.13 -0.492258 5.9314 0.00905287 0.00868119 -0.000172445 0.008885 1.57217e-07 271.387 
-0.87 -0.15 -2.4134 6.12772 0.00909703 0.00868275 -0.000123696 0.0089095 1.57369e-07 271.872 
-0.95 -0.13 -0.89917 6.08577 0.00906317 0.00866542 -0.000164215 0.0088803 1.5713e-07 271.393 
-0.77 -0.17 -4.13103 5.31993 0.00915485 0.00872909 -0.000106434 0.00895809 1.58254e-07 271.826 
-0.85 -0.15 -2.72351 6.22636 0.00910739 0.00867754 -0.000117138 0.00890791 1.57511e-07 271.579 
-0.93 -0.13 -1.11412 6.21901 0.00907984 0.00866711 -0.000159122 0.0088924 1.57157e-07 271.717 
-0.83 -0.15 -3.0811 5.95584 0.00912006 0.00869882 -0.000118811 0.00892374 1.57766e-07 271.621 
-0.91 -0.13 -1.6217 6.52232 0.00907979 0.00866005 -0.000147909 0.00889153 1.57217e-07 271.586 
-0.99 -0.11 -0.128409 5.60642 0.00904536 0.00869519 -0.000187657 0.00888448 1.57003e-07 271.741 
-0.81 -0.15 -3.4335 6.14002 0.00912837 0.00870668 -0.000118676 0.00893129 1.57839e-07 271.725 
-0.89 -0.13 -1.97323 6.62987 0.00908754 0.0086631 -0.000133656 0.00889203 1.57296e-07 271.465 
-0.97 -0.11 -0.456769 6.25667 0.00904067 0.00866977 -0.000181007 0.00887627 1.56975e-07 271.539 
-0.79 -0.15 -3.90935 5.88536 0.0091302 0.00872001 -0.000123232 0.00894293 1.58096e-07 271.637 
-0.87 -0.13 -2.36759 6.64381 0.0090983 0.00866975 -0.00013164 0.00890144 1.57409e-07 271.557 
-0.95 -0.11 -0.746548 6.39708 0.00904808 0.00866513 -0.000174224 0.00887463 1.57092e-07 271.285 
-0.77 -0.15 -4.1887 5.71372 0.00913559 0.00872616 -0.000114823 0.00894603 1.58238e-07 271.488 
-0.85 -0.13 -2.70222 6.40323 0.00911356 0.00867994 -0.00012618 0.00890811 1.57506e-07 271.593 
-0.93 -0.11 -1.26121 6.74147 0.0090551 0.00865402 -0.000165641 0.00887211 1.57076e-07 271.236 
-0.75 -0.15 -4.45768 5.6388 0.00914557 0.00874025 -0.000111569 0.0089572 1.5833e-07 271.668 
-0.83 -0.13 -3.05284 6.46389 0.00912034 0.00869481 -0.00013 0.00891923 1.57509e-07 271.926 
-0.91 -0.11 -1.53787 6.86785 0.00906069 0.00864757 -0.000154616 0.00887512 1.57059e-07 271.358 
-0.99 -0.09 -0.0920468 5.86617 0.00900145 0.00868527 -0.000198401 0.00885882 1.56737e-07 271.416 
-0.81 -0.13 -3.59025 6.46834 0.00911837 0.00870645 -0.000121133 0.00892826 1.57937e-07 271.465 
-0.89 -0.11 -1.84242 6.98779 0.00907534 0.00865769 -0.000145381 0.00888448 1.57346e-07 271.148 
-0.97 -0.09 -0.36536 6.71385 0.00902421 0.00866153 -0.000188362 0.00886524 1.5685e-07 271.416 
-0.79 -0.13 -3.74872 6.37022 0.00912409 0.00871849 -0.000122464 0.00893653 1.57899e-07 271.782 
-0.87 -0.11 -2.2502 7.047 0.00908707 0.00866716 -0.000143761 0.00889924 1.57443e-07 271.431 
-0.95 -0.09 -0.834989 6.76736 0.00903779 0.00865765 -0.000178728 0.00887222 1.56915e-07 271.518 
-0.77 -0.13 -4.12928 5.98686 0.00912366 0.00871934 -0.000120909 0.00893258 1.57977e-07 271.527 
-0.85 -0.11 -2.71115 6.82043 0.00909123 0.00867871 -0.000135267 0.00890083 1.57512e-07 271.361 
-0.93 -0.09 -1.06884 6.93323 0.00904158 0.00864614 -0.000174544 0.0088672 1.57125e-07 271.001 
-0.83 -0.11 -3.14889 6.98995 0.0090917 0.00868303 -0.000128906 0.00890576 1.57545e-07 271.454 
-0.91 -0.09 -1.35285 7.21873 0.00904307 0.00863417 -0.000159975 0.00886023 1.56922e-07 271.139 
-0.99 -0.07 -0.294747 6.23291 0.00900226 0.00867763 -0.000204486 0.00885858 1.56674e-07 271.518 
-0.81 -0.11 -3.43048 6.63052 0.00910426 0.00870908 -0.000128759 0.0089195 1.57604e-07 271.77 
-0.89 -0.09 -1.89624 7.4238 0.00905239 0.00865338 -0.000159178 0.00887405 1.57177e-07 271.121 
-0.97 -0.07 -0.587604 6.92337 0.00899583 0.00865081 -0.000204044 0.00884632 1.56468e-07 271.499 
-0.79 -0.11 -3.60773 6.65997 0.00911199 0.00871516 -0.000129236 0.00892927 1.57975e-07 271.43 
-0.87 -0.09 -2.13261 7.36914 0.00906661 0.00866013 -0.000152238 0.00888578 1.5739e-07 271.112 
-0.95 -0.07 -0.771381 7.09692 0.00899882 0.00864845 -0.000187865 0.00884648 1.56509e-07 271.433 
-0.77 -0.11 -3.95649 6.24871 0.00912503 0.00871645 -0.000130853 0.00893272 1.57977e-07 271.531 
-0.85 -0.09 -2.52295 7.29018 0.00907364 0.00866997 -0.000144239 0.00888841 1.57339e-07 271.28 
-0.93 -0.07 -1.18981 7.36721 0.00901067 0.00863286 -0.000178796 0.00884813 1.56725e-07 271.11 
-0.75 -0.11 -4.43452 6.0196 0.00913791 0.00874999 -0.000129851 0.00895268 1.58289e-07 271.601 
-0.83 -0.09 -2.84632 7.25366 0.00908681 0.00868003 -0.000140485 0.00890065 1.57425e-07 271.506 
-0.91 -0.07 -1.61405 7.58837 0.00902958 0.00863093 -0.000173829 0.00885421 1.56741e-07 271.267 
-0.99 -0.05 -0.0580387 6.65267 0.0089818 0.00866771 -0.000215452 0.00883806 1.56374e-07 271.408 
-0.81 -0.09 -3.24188 7.0399 0.00909803 0.00871176 -0.000139634 0.00891788 1.57791e-07 271.399 
-0.89 -0.07 -1.90093 7.73332 0.00904362 0.00865049 -0.000173567 0.00886941 1.57026e-07 271.239 
-0.97 -0.05 -0.569266 7.13846 0.00900138 0.00864682 -0.000207201 0.00884665 1.56488e-07 271.475 
-0.79 -0.09 -3.66139 6.84404 0.00910112 0.00871709 -0.000133853 0.00892397 1.57808e-07 271.556 
-0.87 -0.07 -2.30094 7.78254 0.00904603 0.00864512 -0.00015754 0.00886456 1.56826e-07 271.438 
-0.95 -0.05 -0.817846 7.47331 0.00900708 0.00863579 -0.000198018 0.00884173 1.56386e-07 271.5 
-0.77 -0.09 -3.92464 6.72306 0.00909656 0.00871699 -0.000132659 0.00892424 1.57845e-07 271.501 
-0.85 -0.07 -2.54294 7.53623 0.00905338 0.00866224 -0.000151705 0.00887872 1.57006e-07 271.559 
-0.93 -0.05 -1.16714 7.76306 0.00900766 0.00862401 -0.000181884 0.00884 1.56455e-07 271.326 
-0.75 -0.09 -4.23819 6.51306 0.00909471 0.00874497 -0.00014171 0.00893479 1.5803e-07 271.504 
-0.83 -0.07 -2.90064 7.72576 0.00906001 0.00868439 -0.000145631 0.00888522 1.57058e-07 271.668 
-0.91 -0.05 -1.47976 8.0038 0.00900956 0.00863128 -0.000181326 0.00884255 1.56535e-07 271.267 
-0.99 -0.03 -0.18494 6.9575 0.00895636 0.00865864 -0.000229446 0.00882157 1.5605e-07 271.464 
-0.81 -0.07 -3.21003 7.55443 0.00905785 0.00869936 -0.00014895 0.00889466 1.57325e-07 271.495 
-0.89 -0.05 -1.84228 8.07294 0.00900883 0.00863731 -0.000176954 0.00884591 1.56621e-07 271.22 
-0.97 -0.03 -0.436306 7.55637 0.00896309 0.0086304 -0.000211401 0.0088197 1.56202e-07 271.142 