ITEM: TIMESTEP
874500
ITEM: NUMBER OF CELLS
5000
ITEM: BOX BOUNDS ss ss pp
-1 1
-0.5 0.5
-0.5 0.5
ITEM: CELLS xc yc f_U[*] f_V[*] f_Tau[1] f_Tau[2] f_Tau[3] f_Press[*] f_Mrho[*] f_Ttra[*] 
-0.99 -0.49 -0.183506 0.314927 0.00899588 0.00876498 -3.46028e-05 0.00888833 1.56686e-07 272.407 
-0.97 -0.49 -0.702389 0.0524769 0.00898407 0.00877087 -3.74375e-05 0.0088849 1.56688e-07 272.3 
-0.95 -0.49 -0.755662 0.0714948 0.00899079 0.00875391 -3.3644e-05 0.00888537 1.56832e-07 272.065 
-0.93 -0.49 -0.948042 0.120612 0.00899927 0.00875646 -3.17636e-05 0.00889205 1.56926e-07 272.106 
-0.91 -0.49 -1.31396 0.115301 0.00900788 0.00872652 -2.43546e-05 0.00886891 1.56746e-07 271.709 
-0.99 -0.47 -0.178066 0.594725 0.00903221 0.00878126 -2.29662e-05 0.00892095 1.57215e-07 272.489 
-0.89 -0.49 -1.7076 0.29037 0.0090358 0.00874701 -2.2775e-05 0.00889994 1.57006e-07 272.208 
-0.97 -0.47 -0.220879 0.43584 0.00902768 0.00877076 -4.14416e-05 0.00891059 1.56917e-07 272.688 
-0.87 -0.49 -1.85253 -0.0275148 0.00904875 0.00876468 -6.97071e-06 0.00890651 1.57322e-07 271.861 
-0.95 -0.47 -0.638662 0.355667 0.00903468 0.00875827 -3.67153e-05 0.00890733 1.57067e-07 272.328 
-0.85 -0.49 -1.94278 0.207379 0.00905352 0.00876173 -5.50469e-06 0.00890483 1.57055e-07 272.273 
-0.93 -0.47 -1.14532 0.392552 0.00904169 0.00874886 -3.7734e-05 0.00890358 1.57011e-07 272.311 
-0.83 -0.49 -1.94629 -0.180187 0.00906459 0.00878135 2.51474e-07 0.0089252 1.57415e-07 272.271 
-0.91 -0.47 -1.34404 0.655455 0.00904618 0.00873205 -3.10382e-05 0.008902 1.57187e-07 271.957 
-0.99 -0.45 -0.141402 0.860767 0.00906253 0.00878871 -3.12077e-05 0.0089372 1.57558e-07 272.39 
-0.81 -0.49 -2.07254 0.349389 0.00905563 0.00877338 6.06249e-06 0.008917 1.57289e-07 272.238 
-0.89 -0.47 -1.913 0.615975 0.00903377 0.00873843 -3.58427e-05 0.00889224 1.56995e-07 271.991 
-0.97 -0.45 -0.449779 0.682697 0.00906545 0.00877769 -3.30182e-05 0.00893616 1.57386e-07 272.657 
-0.79 -0.49 -2.55171 0.137628 0.00904489 0.00876769 2.75071e-05 0.00891456 1.57333e-07 272.088 
-0.87 -0.47 -2.21598 0.134494 0.00904555 0.00874727 -1.80487e-05 0.00890674 1.57043e-07 272.352 
-0.95 -0.45 -0.822996 0.934592 0.00905205 0.00876475 -4.39096e-05 0.00891447 1.57074e-07 272.534 
-0.77 -0.49 -2.54691 -0.17803 0.00905453 0.00879257 3.93566e-05 0.00893348 1.57468e-07 272.432 
-0.85 -0.47 -2.23514 0.111025 0.00906047 0.00876689 -1.34012e-05 0.00891581 1.57198e-07 272.36 
-0.93 -0.45 -1.23475 0.680837 0.00905479 0.00872739 -4.57435e-05 0.00890117 1.57104e-07 272.076 
-0.83 -0.47 -2.45727 0.218045 0.0090587 0.00876615 -4.37323e-06 0.00891939 1.57274e-07 272.338 
-0.91 -0.45 -1.57645 0.968799 0.00905918 0.00874215 -3.08635e-05 0.00890505 1.57329e-07 271.805 
-0.99 -0.43 -0.230779 1.2692 0.00908451 0.00878527 -3.33777e-05 0.00894796 1.57884e-07 272.155 
-0.81 -0.47 -2.68981 0.448269 0.00906815 0.00875841 8.8101e-06 0.00892478 1.57481e-07 272.145 
-0.89 -0.45 -1.81795 0.825404 0.00907203 0.00872638 -3.38701e-05 0.00889433 1.57074e-07 271.918 
-0.97 -0.43 -0.430092 0.8361 0.00908691 0.00878064 -3.35855e-05 0.00895155 1.5765e-07 272.668 
-0.79 -0.47 -2.81539 0.435978 0.00908334 0.00875582 2.02112e-05 0.00893054 1.57528e-07 272.239 
-0.87 -0.45 -2.10761 0.527116 0.00907503 0.00874157 -2.91905e-05 0.00890711 1.56983e-07 272.468 
-0.95 -0.43 -0.708887 1.16453 0.0090964 0.0087743 -4.0867e-05 0.00894072 1.57713e-07 272.23 
-0.77 -0.47 -3.21873 0.0831047 0.00909264 0.0087982 1.53901e-05 0.00895084 1.57964e-07 272.105 
-0.85 -0.45 -2.38847 0.17433 0.00908288 0.00875266 -1.31128e-05 0.00892526 1.5721e-07 272.628 
-0.93 -0.43 -1.14294 1.32308 0.00909594 0.00873244 -4.37802e-05 0.00892016 1.57223e-07 272.45 
-0.75 -0.47 -3.26729 0.196542 0.00909481 0.00880957 2.02054e-05 0.00896169 1.5778e-07 272.753 
-0.83 -0.45 -2.66039 0.515791 0.00909415 0.00876219 -1.42575e-05 0.00893479 1.5752e-07 272.382 
-0.91 -0.43 -1.60454 1.01908 0.00909056 0.00872988 -4.14728e-05 0.00890654 1.57166e-07 272.133 
-0.99 -0.41 -0.151514 1.5443 0.00908465 0.00878479 -4.24929e-05 0.00894939 1.57986e-07 272.024 
-0.81 -0.45 -2.88028 0.780417 0.00909991 0.00874011 -6.50504e-06 0.00893104 1.57468e-07 272.359 
-0.89 -0.43 -1.36701 1.09185 0.00908791 0.00872124 -3.56397e-05 0.00890674 1.57166e-07 272.139 
-0.97 -0.41 -0.449948 1.21189 0.00910301 0.00878923 -5.11589e-05 0.00895066 1.57675e-07 272.598 
-0.79 -0.45 -3.22085 0.78559 0.00910129 0.00875271 1.25681e-05 0.00893437 1.57721e-07 272.022 
-0.87 -0.43 -1.61325 0.69625 0.00909079 0.0087387 -3.46588e-05 0.00891912 1.57304e-07 272.277 
-0.95 -0.41 -0.734348 1.48177 0.00910522 0.00877586 -4.26679e-05 0.0089462 1.57684e-07 272.446 
-0.77 -0.45 -3.443 0.280359 0.00911942 0.00879545 1.11751e-05 0.00895814 1.58048e-07 272.183 
-0.85 -0.43 -2.02216 0.772523 0.00909914 0.00874391 -2.93371e-05 0.00892979 1.57486e-07 272.288 
-0.93 -0.41 -1.08856 1.79578 0.00909882 0.00872032 -4.1635e-05 0.00891329 1.57269e-07 272.161 
-0.75 -0.45 -3.64221 0.249227 0.00911743 0.00880916 1.13856e-05 0.00896536 1.5837e-07 271.848 
-0.83 -0.43 -2.4116 0.868136 0.00910286 0.00875571 -1.0981e-05 0.00893811 1.57545e-07 272.44 
-0.91 -0.41 -1.24294 1.30592 0.00910681 0.00872916 -3.32382e-05 0.00892394 1.57506e-07 272.075 
-0.99 -0.39 -0.198147 1.90181 0.00909172 0.00878635 -6.44319e-05 0.00895596 1.58213e-07 271.831 
-0.81 -0.43 -2.97614 1.0349 0.00910483 0.00873207 -8.42255e-06 0.00893306 1.57652e-07 272.102 
-0.89 -0.41 -1.64638 1.14542 0.00910498 0.00873567 -3.70709e-05 0.0089263 1.57369e-07 272.384 
-0.97 -0.39 -0.639358 1.50377 0.00910536 0.008784 -5.15719e-05 0.00895097 1.57997e-07 272.051 
-0.79 -0.43 -3.2049 0.878691 0.00912192 0.00875039 -7.1227e-06 0.0089437 1.57829e-07 272.121 
-0.87 -0.41 -2.04637 1.13228 0.00909856 0.00872545 -3.67551e-05 0.00892663 1.5735e-07 272.427 
-0.95 -0.39 -0.916422 1.63114 0.00909869 0.00875719 -3.89955e-05 0.00892994 1.57448e-07 272.359 
-0.77 -0.43 -3.41933 0.638118 0.00914162 0.00879061 1.40416e-06 0.00897178 1.58232e-07 272.28 
-0.85 -0.41 -2.42055 0.989175 0.00909995 0.00873955 -3.31018e-05 0.00893632 1.57692e-07 272.132 
-0.93 -0.39 -0.550204 1.87856 0.00910793 0.00873029 -3.01535e-05 0.00892035 1.57496e-07 271.983 
-0.83 -0.41 -2.77654 1.29982 0.00911566 0.00873891 -2.69281e-05 0.00893674 1.57641e-07 272.232 
-0.91 -0.39 -1.17627 1.89515 0.00909941 0.00872338 -4.9881e-05 0.00891761 1.57344e-07 272.162 
-0.99 -0.37 0.100323 2.1615 0.00910118 0.00880304 -5.71857e-05 0.00896982 1.58551e-07 271.671 
-0.81 -0.41 -2.92777 1.41744 0.00912946 0.0087348 -1.80995e-05 0.00894461 1.57844e-07 272.122 
-0.89 -0.39 -1.71071 1.47503 0.00910913 0.00873807 -4.52047e-05 0.00894232 1.57653e-07 272.382 
-0.97 -0.37 -0.278428 2.0089 0.00909741 0.00876122 -5.39291e-05 0.00894576 1.57821e-07 272.197 
-0.79 -0.41 -3.14543 1.20795 0.00914469 0.00875789 -2.24413e-05 0.0089602 1.58203e-07 271.977 
-0.87 -0.39 -1.91768 1.39608 0.00912567 0.00871936 -3.80324e-05 0.00893291 1.57562e-07 272.253 
-0.95 -0.37 -0.694351 1.73676 0.00911484 0.00874675 -4.82998e-05 0.00893131 1.57856e-07 271.696 
-0.77 -0.41 -3.8163 1.04037 0.00914652 0.00877972 -2.11458e-05 0.00896891 1.58327e-07 272.029 
-0.85 -0.39 -2.37627 1.45341 0.00914503 0.00874976 -4.37078e-05 0.00895467 1.58209e-07 271.8 
-0.93 -0.37 -1.27622 1.98903 0.00912204 0.0087373 -4.2194e-05 0.0089412 1.57799e-07 272.095 
-0.75 -0.41 -4.15318 1.11598 0.00916968 0.00879865 -6.47468e-06 0.00899837 1.58593e-07 272.464 
-0.83 -0.39 -2.75137 1.71067 0.00913983 0.00872415 -3.94784e-05 0.00894199 1.57852e-07 272.028 
-0.91 -0.37 -1.30531 2.25983 0.00913773 0.00872882 -5.30987e-05 0.00894652 1.57749e-07 272.344 
-0.99 -0.35 -0.176152 2.1583 0.00910208 0.00879821 -7.33547e-05 0.00896923 1.58379e-07 271.949 
-0.81 -0.39 -2.92055 1.35515 0.0091528 0.00873532 -3.08201e-05 0.00895488 1.57827e-07 272.465 
-0.89 -0.37 -1.67021 2.01203 0.00914198 0.00873068 -4.73944e-05 0.00894989 1.57801e-07 272.358 
-0.97 -0.35 -0.315604 2.46148 0.00911136 0.00874626 -6.34165e-05 0.00894442 1.58021e-07 271.811 
-0.79 -0.39 -3.38949 1.81199 0.00915151 0.00874817 -2.63199e-05 0.00896321 1.58096e-07 272.253 
-0.87 -0.37 -2.33682 1.81518 0.00914488 0.00872096 -5.47583e-05 0.00894116 1.57537e-07 272.547 
-0.95 -0.35 -0.543712 1.96549 0.00911771 0.00873983 -5.23749e-05 0.00893783 1.57861e-07 271.886 
-0.77 -0.39 -3.81951 1.60174 0.00915718 0.00878618 -2.26054e-05 0.00898613 1.58558e-07 272.154 
-0.85 -0.37 -2.72158 1.81485 0.00914334 0.00874525 -5.13643e-05 0.00894987 1.58038e-07 271.947 
-0.93 -0.35 -1.02513 2.54293 0.00912768 0.00874042 -6.00298e-05 0.00895035 1.57872e-07 272.249 
-0.83 -0.37 -2.86666 1.77876 0.00914576 0.00871551 -4.24744e-05 0.00894063 1.57803e-07 272.071 
-0.91 -0.35 -1.51201 2.33485 0.00912261 0.00872928 -5.11374e-05 0.00893041 1.57599e-07 272.112 
-0.81 -0.37 -3.26309 1.65606 0.00915742 0.00872292 -3.3102e-05 0.00895408 1.57955e-07 272.219 
-0.89 -0.35 -1.71362 2.63154 0.00912801 0.00872569 -5.75248e-05 0.0089355 1.57659e-07 272.164 
-0.79 -0.37 -3.60921 2.17383 0.00916598 0.00875453 -2.95452e-05 0.00897874 1.58364e-07 272.263 
-0.87 -0.35 -2.24063 2.09193 0.00913756 0.00873055 -5.07322e-05 0.00894523 1.57859e-07 272.115 
-0.77 -0.37 -3.88091 2.30385 0.00916561 0.00877968 -2.39157e-05 0.00898192 1.58465e-07 272.186 
-0.85 -0.35 -2.54635 2.24578 0.00914877 0.00872416 -5.30557e-05 0.00894185 1.57938e-07 271.877 
-0.83 -0.35 -3.1677 2.14552 0.00915735 0.00871973 -4.64829e-05 0.00894141 1.57919e-07 271.895 
-0.81 -0.35 -3.59615 2.23263 0.00916192 0.00871893 -5.3962e-05 0.00895258 1.58002e-07 272.092 
-0.79 -0.35 -3.76115 2.39139 0.0091839 0.00874225 -3.86664e-05 0.00897045 1.58308e-07 272.109 
-0.77 -0.35 -4.00098 2.63419 0.00919771 0.00877303 -2.80261e-05 0.00899384 1.5847e-07 272.539 
-0.75 -0.35 -4.19931 2.45064 0.00919328 0.00878766 -1.72652e-05 0.00900373 1.58747e-07 272.363 
-0.75 -0.49 -2.67455 0.213872 0.00907462 0.00880642 2.11607e-05 0.00894416 1.57889e-07 272.031 
-0.75 -0.43 -3.82976 0.698762 0.0091529 0.00880799 1.45886e-06 0.00899068 1.58648e-07 272.138 
-0.75 -0.39 -4.77217 1.61373 0.00915417 0.00878329 -2.14267e-05 0.00898586 1.58474e-07 272.29 
-0.75 -0.37 -4.19812 2.05045 0.00916361 0.00878505 -2.19657e-05 0.00898533 1.58271e-07 272.623 
-0.77 -0.33 -4.01528 2.78335 0.00915298 0.00875051 -4.19516e-05 0.00895531 1.58198e-07 271.837 
-0.73 -0.49 -3.03593 0.225434 0.00907737 0.00881496 2.03012e-05 0.00895677 1.58068e-07 272.106 
-0.73 -0.47 -3.15893 0.159563 0.0090959 0.00880485 2.29812e-05 0.0089673 1.5821e-07 272.181 
-0.73 -0.45 -3.73218 0.343572 0.0091311 0.00880448 1.22809e-05 0.00898107 1.58449e-07 272.189 
-0.73 -0.43 -4.58768 0.863775 0.00915938 0.0088081 6.0571e-07 0.0089958 1.58683e-07 272.232 
-0.73 -0.41 -4.5877 1.34943 0.00917489 0.00880906 -3.87632e-06 0.00900646 1.58793e-07 272.366 
-0.73 -0.39 -4.72768 1.55663 0.00916401 0.00880437 -7.89539e-06 0.00899855 1.58637e-07 272.395 
-0.73 -0.37 -4.64965 1.79376 0.00916409 0.00878618 -2.50515e-05 0.008988 1.58581e-07 272.172 
-0.73 -0.35 -4.53972 2.07869 0.00918543 0.00878995 -1.84204e-05 0.00899565 1.58681e-07 272.23 
-0.81 -0.29 -3.04956 3.4019 0.00915183 0.00871036 -6.8203e-05 0.00893645 1.58014e-07 271.581 
-0.89 -0.27 -1.84187 3.73645 0.00911512 0.0086893 -8.18153e-05 0.00891601 1.57467e-07 271.902 
-0.97 -0.25 -0.534338 3.91355 0.00909117 0.00871903 -0.000105232 0.0089132 1.5736e-07 272.001 
-0.83 -0.29 -2.9116 3.3568 0.00913305 0.00872035 -6.97848e-05 0.00894013 1.57626e-07 272.361 
-0.91 -0.27 -1.22037 3.9209 0.00911163 0.00871781 -9.10347e-05 0.00892883 1.57727e-07 271.843 
-0.99 -0.25 -0.114322 3.75272 0.00908791 0.00873927 -0.00011056 0.0089283 1.57665e-07 271.935 
-0.79 -0.29 -3.31671 3.2275 0.00916962 0.00872482 -6.28922e-05 0.00894856 1.58166e-07 271.688 
-0.87 -0.27 -2.37699 3.97194 0.00912302 0.00871681 -7.38876e-05 0.00893647 1.57833e-07 271.893 
-0.95 -0.25 -0.62812 3.96843 0.00910307 0.00873332 -0.000114849 0.00892656 1.57664e-07 271.884 
-0.77 -0.29 -3.87652 3.37688 0.00918579 0.00874408 -4.62439e-05 0.00897542 1.58577e-07 271.797 
-0.85 -0.27 -2.51466 3.7025 0.00913572 0.00871811 -7.24787e-05 0.00893317 1.57814e-07 271.825 
-0.93 -0.25 -0.896323 4.05655 0.00910184 0.00870853 -0.000107972 0.0089172 1.57455e-07 271.959 
-0.75 -0.29 -4.43607 3.1689 0.00918671 0.00877414 -5.16718e-05 0.00899668 1.58799e-07 272.06 
-0.83 -0.27 -2.87109 3.5493 0.00915114 0.00873029 -6.82265e-05 0.0089522 1.58176e-07 271.782 
-0.91 -0.25 -1.32427 4.34583 0.00910869 0.00871314 -9.27063e-05 0.0089225 1.5761e-07 271.853 
-0.99 -0.23 -0.0160905 3.91367 0.00906892 0.00873496 -0.000123104 0.00891763 1.57468e-07 271.949 
-0.81 -0.27 -3.33281 3.67858 0.00915104 0.00871344 -8.24139e-05 0.00893659 1.5792e-07 271.747 
-0.89 -0.25 -1.81078 4.3336 0.0091117 0.00868046 -8.91089e-05 0.00891463 1.57354e-07 272.055 
-0.97 -0.23 -0.0403226 4.15129 0.00908764 0.00873007 -0.000126045 0.00892615 1.57676e-07 271.85 
-0.79 -0.27 -3.88639 3.67665 0.00916233 0.00870489 -7.63081e-05 0.00893574 1.58074e-07 271.457 
-0.87 -0.25 -2.27017 4.32683 0.00913802 0.00870874 -8.27598e-05 0.00894465 1.58003e-07 271.849 
-0.95 -0.23 -0.584532 4.25829 0.00909671 0.00871806 -0.000123791 0.00891837 1.57415e-07 272.063 
-0.77 -0.27 -4.11101 3.84589 0.00917468 0.00873956 -6.35573e-05 0.00897098 1.58514e-07 271.771 
-0.85 -0.25 -2.67342 3.97446 0.00915639 0.00872655 -9.12123e-05 0.00894565 1.57989e-07 271.904 
-0.93 -0.23 -1.11811 4.43809 0.00910561 0.00870741 -0.000112718 0.00891902 1.57556e-07 271.84 
-0.83 -0.25 -3.16218 4.03616 0.00916478 0.0087108 -8.38081e-05 0.00893734 1.58207e-07 271.276 
-0.91 -0.23 -1.33236 4.76546 0.00911733 0.00869415 -0.000104405 0.00892472 1.57463e-07 272.173 
-0.99 -0.21 -0.04042 3.97517 0.00910756 0.00873902 -0.000133251 0.00894417 1.58078e-07 271.706 
-0.81 -0.25 -3.43377 4.11523 0.00917127 0.00872831 -7.44796e-05 0.00895666 1.58318e-07 271.673 
-0.89 -0.23 -1.91931 4.91433 0.00913637 0.00868489 -9.51495e-05 0.00893061 1.57788e-07 271.792 
-0.97 -0.21 -0.0643472 4.34256 0.00910792 0.00870781 -0.000129491 0.00892539 1.57755e-07 271.69 
-0.79 -0.25 -3.88721 4.2935 0.009156 0.00870059 -8.07098e-05 0.008935 1.58062e-07 271.454 
-0.87 -0.23 -2.36826 4.67476 0.00914465 0.00871134 -0.000106863 0.00893895 1.57961e-07 271.749 
-0.95 -0.21 -0.386191 4.76339 0.00910897 0.00871577 -0.000125103 0.00892876 1.57524e-07 272.191 
-0.77 -0.25 -4.37968 3.98652 0.0091607 0.00873138 -8.47611e-05 0.00894663 1.58024e-07 271.873 
-0.85 -0.23 -2.86376 4.66456 0.0091422 0.00872184 -9.17412e-05 0.00893852 1.5787e-07 271.891 
-0.93 -0.21 -1.03848 4.96741 0.00911439 0.00870072 -0.000122792 0.00891641 1.57525e-07 271.814 
-0.83 -0.23 -3.19055 4.36888 0.00913649 0.00870493 -8.572e-05 0.0089256 1.57706e-07 271.782 
-0.91 -0.21 -1.48407 5.03312 0.00912509 0.0086873 -0.00011921 0.00892142 1.57574e-07 271.882 
-0.99 -0.19 -0.113221 4.19662 0.00908253 0.00873653 -0.000142423 0.00893006 1.57846e-07 271.676 
-0.81 -0.23 -3.68334 4.17137 0.00915252 0.00871671 -8.83283e-05 0.00894977 1.57983e-07 272.039 
-0.89 -0.21 -1.68671 5.40722 0.00913894 0.00869216 -0.000112711 0.00893943 1.57959e-07 271.766 
-0.97 -0.19 -0.768195 4.73052 0.00909904 0.00870158 -0.000143423 0.00890499 1.57695e-07 271.173 
-0.79 -0.23 -3.70723 4.728 0.00917696 0.00871476 -8.09393e-05 0.00895435 1.58228e-07 271.758 
-0.87 -0.21 -1.96896 5.07696 0.0091396 0.00869207 -0.000111737 0.00893246 1.58043e-07 271.411 
-0.95 -0.19 -0.927501 5.12137 0.00910966 0.00872006 -0.000128414 0.00891518 1.57566e-07 271.706 
-0.77 -0.23 -4.05596 4.39224 0.00917969 0.00873208 -9.06744e-05 0.00896387 1.58238e-07 272.03 
-0.85 -0.21 -2.72079 5.20859 0.00915296 0.00871073 -9.13098e-05 0.00894534 1.57931e-07 271.995 
-0.93 -0.19 -1.01509 5.35121 0.00911991 0.0086942 -0.000126919 0.00892428 1.57795e-07 271.587 
-0.75 -0.23 -4.43391 4.06733 0.00918244 0.00875995 -9.15483e-05 0.00898415 1.58661e-07 271.918 
-0.83 -0.21 -3.24999 4.6416 0.00917247 0.00871896 -9.41081e-05 0.00895753 1.58127e-07 272.027 
-0.91 -0.19 -1.42526 5.49266 0.00911431 0.00867234 -0.000128041 0.00890185 1.57335e-07 271.696 
-0.81 -0.21 -3.49111 4.66997 0.009164 0.00870787 -8.76638e-05 0.00895313 1.58208e-07 271.754 
-0.89 -0.19 -1.83306 5.54104 0.00912597 0.00868662 -0.000119119 0.00892065 1.57652e-07 271.723 
-0.79 -0.21 -3.96135 5.01374 0.00916136 0.00871759 -9.83948e-05 0.00895387 1.58247e-07 271.711 
-0.87 -0.19 -2.22972 5.59876 0.00913338 0.00869132 -0.000105426 0.00892663 1.57721e-07 271.786 
-0.77 -0.21 -4.30162 4.69385 0.00917006 0.00873356 -9.11309e-05 0.00895992 1.58283e-07 271.831 
-0.85 -0.19 -2.39934 5.62803 0.00913545 0.00869537 -0.00011128 0.00892786 1.5806e-07 271.241 
-0.75 -0.21 -4.78597 4.59083 0.0091775 0.00875177 -9.603e-05 0.00898166 1.58504e-07 272.112 
-0.83 -0.19 -2.74229 5.24877 0.00913206 0.00871611 -0.000101917 0.00893637 1.57882e-07 271.806 
-0.81 -0.19 -3.38145 5.05295 0.0091523 0.00870159 -0.000107023 0.0089316 1.57931e-07 271.576 
-0.79 -0.19 -3.94438 5.26021 0.00916882 0.00872379 -9.01065e-05 0.00896395 1.58446e-07 271.674 
-0.77 -0.19 -4.18565 5.28069 0.00917496 0.00874381 -0.000105743 0.00896946 1.58718e-07 271.375 
-0.99 -0.33 -0.103788 2.54021 0.00909531 0.00878382 -8.35959e-05 0.00895801 1.58011e-07 272.241 
-0.97 -0.33 -0.382587 2.51318 0.00910941 0.00874279 -7.68765e-05 0.00894194 1.57922e-07 271.907 
-0.91 -0.33 -1.3367 2.86257 0.00915073 0.00873694 -5.74331e-05 0.00894189 1.57866e-07 272.001 
-0.99 -0.31 -0.219435 2.99864 0.00908263 0.00876482 -8.82349e-05 0.00893629 1.57706e-07 272.107 
-0.97 -0.31 -0.456894 2.50904 0.00909279 0.00873967 -7.62872e-05 0.00893082 1.57772e-07 271.827 
-0.87 -0.33 -2.11522 2.62549 0.00915598 0.00873527 -6.77684e-05 0.00895366 1.58109e-07 271.941 
-0.95 -0.31 -1.06441 3.22338 0.00909967 0.00872367 -8.12788e-05 0.00892346 1.57542e-07 271.999 
-0.85 -0.33 -2.42475 2.5952 0.00915106 0.00871785 -5.95797e-05 0.00894931 1.57912e-07 272.148 
-0.93 -0.31 -1.39409 3.22219 0.00911719 0.00873456 -7.97502e-05 0.00893449 1.57722e-07 272.024 
-0.91 -0.31 -1.82072 2.99977 0.00914453 0.00872971 -7.15847e-05 0.00894405 1.57763e-07 272.245 
-0.99 -0.29 -0.0323198 3.15984 0.0090529 0.00874985 -0.000101002 0.00891979 1.57521e-07 271.923 
-0.81 -0.33 -3.43086 2.52734 0.00916257 0.0087155 -4.85634e-05 0.00895586 1.57925e-07 272.325 
-0.89 -0.31 -1.94351 3.30066 0.00915641 0.00872087 -6.24721e-05 0.00895061 1.57988e-07 272.057 
-0.97 -0.29 -0.636482 3.33326 0.0090718 0.00873217 -9.39929e-05 0.00891461 1.57527e-07 271.754 
-0.87 -0.31 -2.09501 2.96155 0.00915738 0.00872868 -6.69246e-05 0.00895029 1.58157e-07 271.757 
-0.95 -0.29 -0.871993 3.55315 0.00908872 0.00871509 -9.19713e-05 0.00891909 1.57327e-07 272.238 
-0.85 -0.31 -2.79182 2.97905 0.0091491 0.00871526 -5.61533e-05 0.00894021 1.57855e-07 271.97 
-0.93 -0.29 -1.24057 3.37557 0.00910568 0.00874329 -9.39605e-05 0.00893168 1.57533e-07 272.265 
-0.83 -0.31 -2.95349 3.17666 0.00914551 0.00872154 -5.21266e-05 0.00894938 1.57784e-07 272.371 
-0.91 -0.29 -1.34318 3.51333 0.00909676 0.00871421 -8.44086e-05 0.00891595 1.57472e-07 271.89 
-0.99 -0.27 -0.117651 3.46293 0.00908176 0.00874484 -0.000110428 0.00893252 1.57835e-07 271.769 
-0.81 -0.31 -3.39202 3.03074 0.00914495 0.00870597 -5.20653e-05 0.00894124 1.57744e-07 272.191 
-0.89 -0.29 -1.62838 3.30942 0.00911142 0.00871331 -7.81756e-05 0.00892393 1.57686e-07 271.764 
-0.97 -0.27 -0.254292 3.72701 0.00908111 0.00872267 -0.000107732 0.0089179 1.57445e-07 271.997 
-0.79 -0.31 -3.75318 2.85018 0.00915298 0.00873787 -5.1148e-05 0.00895433 1.58169e-07 271.859 
-0.87 -0.29 -2.15392 3.44712 0.0091142 0.00871899 -5.42072e-05 0.00892358 1.57813e-07 271.536 
-0.95 -0.27 -0.56479 3.6932 0.00909038 0.00872352 -9.89555e-05 0.00891421 1.57446e-07 271.882 
-0.77 -0.31 -3.92883 3.12711 0.00916185 0.0087442 -4.34848e-05 0.00894979 1.58407e-07 271.311 
-0.85 -0.29 -2.63842 3.52142 0.00912393 0.0087125 -5.84639e-05 0.00893407 1.5798e-07 271.567 
-0.93 -0.27 -0.748675 3.68491 0.00909624 0.00872298 -9.87473e-05 0.00892018 1.57318e-07 272.286 
-0.95 -0.33 -0.623219 2.48285 0.00912149 0.00872538 -6.34688e-05 0.00893406 1.57749e-07 271.965 
-0.93 -0.33 -1.06541 2.97038 0.00913371 0.00873653 -5.55476e-05 0.00894264 1.57787e-07 272.161 
-0.89 -0.33 -1.90448 2.81412 0.00915051 0.00871765 -6.04004e-05 0.008941 1.57806e-07 272.078 
-0.83 -0.33 -3.00904 2.83345 0.00915348 0.00872009 -5.94624e-05 0.00895537 1.57985e-07 272.206 
-0.75 -0.31 -4.24004 2.71559 0.00917538 0.00877609 -4.21069e-05 0.00898991 1.58754e-07 271.932 
-0.75 -0.27 -4.39397 3.82729 0.00920085 0.00877437 -6.1897e-05 0.00899131 1.58752e-07 271.979 
-0.75 -0.25 -4.48601 3.97337 0.00917177 0.00876843 -7.52921e-05 0.00897525 1.58604e-07 271.746 
-0.75 -0.19 -4.55318 4.94179 0.00916668 0.00874195 -9.70709e-05 0.00897236 1.5871e-07 271.477 
-0.79 -0.33 -3.84161 2.63698 0.00914992 0.00873857 -4.21361e-05 0.00895637 1.58124e-07 271.997 
-0.75 -0.33 -4.26529 2.36389 0.00916618 0.00877881 -2.3039e-05 0.00898582 1.58698e-07 271.904 
-0.81 -0.17 -3.52582 5.85591 0.00913374 0.00870081 -0.000107004 0.00891834 1.57632e-07 271.687 
-0.79 -0.17 -4.12655 5.62242 0.00913396 0.00872499 -0.000115309 0.00894929 1.58044e-07 271.92 
-0.75 -0.17 -4.38942 5.42932 0.00915961 0.0087426 -0.000106169 0.00896088 1.58354e-07 271.74 
-0.73 -0.31 -4.91037 2.73152 0.00918159 0.00879171 -4.48961e-05 0.00899628 1.5859e-07 272.406 
-0.73 -0.29 -4.55431 3.14711 0.00919358 0.00879308 -4.71604e-05 0.00900374 1.59138e-07 271.694 
-0.73 -0.27 -5.0703 3.32739 0.00920696 0.00878884 -6.03297e-05 0.00901134 1.59037e-07 272.096 
-0.73 -0.25 -4.5744 3.7135 0.00919239 0.00877932 -6.76561e-05 0.00900197 1.59198e-07 271.538 
-0.73 -0.23 -4.84092 3.97077 0.00918224 0.00876752 -7.48795e-05 0.00898367 1.58734e-07 271.777 
-0.73 -0.21 -5.07061 4.20504 0.00919319 0.00876536 -9.22591e-05 0.00897842 1.58585e-07 271.875 
-0.73 -0.19 -4.82817 4.72503 0.00916803 0.00877198 -0.000100478 0.00898066 1.58702e-07 271.741 
-0.79 -0.05 -3.25963 7.53935 0.0090503 0.00869975 -0.000155532 0.00888842 1.57378e-07 271.213 
-0.87 -0.03 -2.3533 8.59308 0.00898756 0.00860946 -0.000185194 0.00881509 1.56163e-07 271.068 
-0.83 -0.05 -2.69838 8.21014 0.00902718 0.00869433 -0.000148055 0.00888401 1.57015e-07 271.705 
-0.91 -0.03 -1.81481 8.20317 0.00899596 0.00862795 -0.000187195 0.00882694 1.56188e-07 271.389 
-0.81 -0.05 -2.83234 7.81499 0.00903958 0.00869315 -0.000136553 0.00888446 1.57456e-07 270.958 
-0.89 -0.03 -1.87205 8.53812 0.0089819 0.00862748 -0.000175287 0.00882458 1.56227e-07 271.25 
-0.77 -0.05 -3.55854 6.98741 0.00907077 0.00874756 -0.000154433 0.00892327 1.57814e-07 271.524 
-0.85 -0.03 -2.54804 8.00657 0.00899493 0.0086476 -0.000177276 0.00884361 1.56562e-07 271.253 
-0.75 -0.05 -3.88283 7.07745 0.00907967 0.00876897 -0.000168908 0.00893685 1.57954e-07 271.696 
-0.83 -0.03 -2.64759 8.41711 0.00902283 0.00867567 -0.000170527 0.00886986 1.57108e-07 271.111 
-0.81 -0.03 -3.14578 8.08163 0.00903675 0.00868851 -0.000153623 0.00888107 1.57422e-07 270.913 
-0.79 -0.03 -3.14938 7.97015 0.00905898 0.0087178 -0.000153672 0.00890092 1.57487e-07 271.407 
-0.77 -0.03 -3.54206 7.22532 0.00905254 0.00874584 -0.000164056 0.00891399 1.57632e-07 271.556 
-0.95 -0.17 -0.883212 5.32697 0.00908513 0.0087063 -0.000151265 0.00889988 1.57446e-07 271.445 
-0.99 -0.15 -0.209265 4.75091 0.00904509 0.00871939 -0.000171779 0.00890067 1.57194e-07 271.905 
-0.89 -0.17 -1.7737 5.77593 0.00911616 0.00867322 -0.000126297 0.00890664 1.5723e-07 272.025 
-0.97 -0.15 -0.589426 5.54546 0.00906543 0.00870796 -0.000169469 0.00889958 1.57311e-07 271.669 
-0.95 -0.15 -0.876567 5.73383 0.00907729 0.00869308 -0.000159042 0.00889817 1.57382e-07 271.503 
-0.93 -0.15 -1.10526 5.77789 0.00908072 0.00867041 -0.000142585 0.00889937 1.57375e-07 271.553 
-0.83 -0.17 -2.8983 5.71121 0.00913994 0.00871716 -0.000101297 0.00894273 1.58025e-07 271.752 
-0.91 -0.15 -1.46402 6.29645 0.00909344 0.00867801 -0.00014646 0.00890059 1.5738e-07 271.581 
-0.99 -0.13 -0.287396 5.1812 0.00905665 0.00872671 -0.000191448 0.00890315 1.57491e-07 271.468 
-0.89 -0.15 -1.5372 6.02226 0.00909449 0.00865991 -0.000125133 0.00889464 1.57242e-07 271.638 
-0.97 -0.13 -0.564283 5.90288 0.00906504 0.00869441 -0.000164272 0.00888915 1.57229e-07 271.493 
-0.87 -0.15 -2.03667 6.25068 0.00909888 0.00868516 -0.000125984 0.00891619 1.57311e-07 272.176 
-0.95 -0.13 -0.869545 6.18151 0.00906826 0.0086781 -0.000165253 0.00888899 1.57461e-07 271.088 
-0.77 -0.17 -4.27866 5.20319 0.00914845 0.00873935 -0.00010461 0.00895644 1.58463e-07 271.417 
-0.85 -0.15 -2.45511 6.55126 0.00910471 0.0086772 -0.000110914 0.00891324 1.57528e-07 271.712 
-0.93 -0.13 -1.28834 5.99039 0.00908081 0.00867476 -0.000162406 0.00889812 1.57235e-07 271.756 
-0.83 -0.15 -2.99326 6.0852 0.00912495 0.00871171 -0.000117967 0.0089359 1.57951e-07 271.673 
-0.91 -0.13 -1.72554 6.63534 0.00908459 0.00866408 -0.000149287 0.00889799 1.57305e-07 271.631 
-0.99 -0.11 -0.161781 5.57425 0.0090472 0.00870736 -0.000182097 0.00889365 1.57181e-07 271.713 
-0.81 -0.15 -3.31859 6.27392 0.00913595 0.00871524 -0.000108308 0.00894355 1.57842e-07 272.094 
-0.89 -0.13 -2.08294 6.14084 0.00909669 0.00865228 -0.000138109 0.00889691 1.57503e-07 271.256 
-0.97 -0.11 -0.646286 6.19924 0.00904314 0.00868614 -0.000182885 0.00888111 1.57044e-07 271.566 
-0.79 -0.15 -3.67926 5.9545 0.00913514 0.0087262 -0.000119231 0.00894706 1.58115e-07 271.73 
-0.87 -0.13 -2.57542 6.87459 0.00910745 0.00867091 -0.000128368 0.00891697 1.57719e-07 271.496 
-0.95 -0.11 -0.865407 6.43103 0.00905817 0.00867066 -0.000179211 0.00888002 1.57023e-07 271.57 
-0.77 -0.15 -4.18492 5.46751 0.00914499 0.0087339 -0.000117561 0.00895395 1.58433e-07 271.394 
-0.85 -0.13 -2.96123 6.61461 0.00912386 0.00868475 -0.000129328 0.00892557 1.57767e-07 271.676 
-0.93 -0.11 -1.26394 6.5259 0.00907528 0.00867202 -0.000169707 0.00889525 1.57401e-07 271.382 
-0.75 -0.15 -4.58227 5.6582 0.00914579 0.00874177 -0.000113245 0.00896145 1.58519e-07 271.474 
-0.83 -0.13 -2.94296 6.6494 0.00913147 0.00870453 -0.000124318 0.00893968 1.57743e-07 272.147 
-0.91 -0.11 -1.65509 6.97966 0.00907708 0.0086503 -0.000159354 0.00887429 1.57056e-07 271.337 
-0.99 -0.09 0.0100114 5.91145 0.00899709 0.00868749 -0.000204715 0.00885654 1.56649e-07 271.497 
-0.81 -0.13 -3.44705 6.6449 0.00912064 0.00870801 -0.000115356 0.00893039 1.57923e-07 271.554 
-0.89 -0.11 -2.03008 6.8429 0.00908454 0.00864625 -0.000148686 0.00888229 1.57358e-07 271.06 
-0.97 -0.09 -0.480258 6.77134 0.00902737 0.00868416 -0.000196168 0.00888191 1.57184e-07 271.349 
-0.79 -0.13 -3.5303 6.29035 0.00913344 0.0087354 -0.000122746 0.00894751 1.58126e-07 271.724 
-0.87 -0.11 -2.50486 7.19438 0.00909329 0.00865773 -0.000145768 0.00890176 1.5765e-07 271.151 
-0.95 -0.09 -0.975362 6.69063 0.00904117 0.00867249 -0.000182633 0.00888106 1.57197e-07 271.3 
-0.77 -0.13 -3.9313 5.93186 0.00912871 0.00871983 -0.000117859 0.00893774 1.5798e-07 271.679 
-0.85 -0.11 -2.60527 6.79164 0.00910225 0.00868854 -0.000128332 0.00891034 1.57674e-07 271.372 
-0.93 -0.09 -1.08767 6.8119 0.00903558 0.00864962 -0.000181696 0.0088627 1.57014e-07 271.055 
-0.83 -0.11 -3.08476 7.11249 0.00909026 0.00869062 -0.000128768 0.00891454 1.57607e-07 271.614 
-0.91 -0.09 -1.33186 7.28022 0.00903591 0.00864012 -0.000156907 0.00886044 1.56867e-07 271.24 
-0.99 -0.07 -0.511075 6.33926 0.00900266 0.00867839 -0.000210415 0.00885743 1.56646e-07 271.531 
-0.81 -0.11 -3.43945 6.66739 0.00912296 0.00871467 -0.000130297 0.00893736 1.57799e-07 271.978 
-0.89 -0.09 -2.09955 7.38697 0.00904592 0.00864626 -0.00016504 0.00886322 1.57049e-07 271.011 
-0.97 -0.07 -0.630337 6.95897 0.00898979 0.00866658 -0.000203708 0.00885489 1.56665e-07 271.419 
-0.79 -0.11 -3.55675 6.46198 0.00912543 0.00872132 -0.000122396 0.00894254 1.5822e-07 271.412 
-0.87 -0.09 -2.38809 7.44529 0.00906497 0.00864592 -0.000157955 0.00887751 1.57291e-07 271.031 
-0.95 -0.07 -0.732064 6.84564 0.00899388 0.00867348 -0.00018523 0.00885324 1.56534e-07 271.597 
-0.77 -0.11 -3.89329 6.22021 0.00912947 0.00872109 -0.000126106 0.00894745 1.58097e-07 271.772 
-0.85 -0.09 -2.65936 7.18272 0.00907152 0.0086647 -0.000143995 0.0088839 1.57248e-07 271.299 
-0.93 -0.07 -1.21145 7.37617 0.00899756 0.00863206 -0.000183242 0.00884272 1.56527e-07 271.285 
-0.75 -0.11 -4.37458 6.19596 0.00913599 0.00875965 -0.000122241 0.00896433 1.5856e-07 271.491 
-0.83 -0.09 -3.02735 7.12529 0.00909772 0.00870925 -0.000138663 0.00892558 1.57739e-07 271.724 
-0.91 -0.07 -1.72008 7.52294 0.00902003 0.00863145 -0.000181877 0.00885345 1.56559e-07 271.559 
-0.99 -0.05 0.0671142 6.73979 0.0089769 0.00867287 -0.000215987 0.0088452 1.56449e-07 271.497 
-0.81 -0.09 -3.29198 7.18971 0.00909474 0.00871296 -0.000143943 0.00891901 1.57752e-07 271.502 
-0.89 -0.07 -1.89371 7.82315 0.00903991 0.00865269 -0.000178007 0.00886123 1.56959e-07 271.106 
-0.97 -0.05 -0.431169 7.04357 0.00900074 0.00866698 -0.000210271 0.00885819 1.56756e-07 271.364 
-0.79 -0.09 -3.82664 6.74478 0.00909883 0.00871402 -0.000124818 0.00892214 1.57886e-07 271.366 
-0.87 -0.07 -2.24947 7.81671 0.00903581 0.00862802 -0.000157869 0.00885813 1.56899e-07 271.114 
-0.95 -0.05 -0.660629 7.21845 0.00900183 0.00864836 -0.000199779 0.0088478 1.56518e-07 271.457 
-0.77 -0.09 -4.03615 6.70715 0.00909452 0.00872133 -0.000120247 0.0089348 1.57986e-07 271.579 
-0.85 -0.07 -2.53554 7.49475 0.00904537 0.00865732 -0.00015217 0.00887466 1.56933e-07 271.561 
-0.93 -0.05 -1.27798 7.7331 0.00900343 0.00863169 -0.000178394 0.00884017 1.56475e-07 271.297 
-0.75 -0.09 -4.33002 6.48605 0.00908735 0.00875012 -0.000129934 0.00893601 1.58006e-07 271.582 
-0.83 -0.07 -3.00477 7.66412 0.00904939 0.00870249 -0.000143798 0.00888959 1.57102e-07 271.725 
-0.91 -0.05 -1.37404 7.93645 0.00899891 0.00863219 -0.000186621 0.00883853 1.56405e-07 271.369 
-0.99 -0.03 -0.091971 6.91573 0.00896907 0.00867039 -0.000232209 0.00883375 1.56355e-07 271.309 
-0.81 -0.07 -3.6232 7.69688 0.00905033 0.00870935 -0.000146883 0.00889666 1.57417e-07 271.397 
-0.89 -0.05 -1.81429 8.13858 0.0090041 0.00863995 -0.000183732 0.0088424 1.5679e-07 270.82 