ITEM: TIMESTEP
859000
ITEM: NUMBER OF CELLS
5000
ITEM: BOX BOUNDS ss ss pp
-1 1
-0.5 0.5
-0.5 0.5
ITEM: CELLS xc yc f_U[*] f_V[*] f_Tau[1] f_Tau[2] f_Tau[3] f_Press[*] f_Mrho[*] f_Ttra[*] 
-0.99 -0.49 -0.00050422 0.22146 0.00899275 0.00875325 -2.52353e-05 0.00888445 1.56723e-07 272.226 
-0.97 -0.49 -0.512424 0.0509812 0.00897571 0.00876368 -3.18308e-05 0.00888018 1.5654e-07 272.413 
-0.95 -0.49 -0.67022 0.161327 0.00898117 0.00873672 -3.39156e-05 0.00887553 1.56707e-07 271.979 
-0.93 -0.49 -0.903024 0.116275 0.00900402 0.00875529 -3.45473e-05 0.00889477 1.56972e-07 272.109 
-0.91 -0.49 -1.24335 0.116713 0.00901639 0.00871705 -2.26396e-05 0.00886896 1.56747e-07 271.709 
-0.99 -0.47 -0.262986 0.401337 0.00901858 0.00876305 -2.20223e-05 0.00890592 1.57062e-07 272.294 
-0.89 -0.49 -1.69688 0.330137 0.00904995 0.00873905 -2.20801e-05 0.00890319 1.57115e-07 272.119 
-0.97 -0.47 -0.163134 0.51594 0.00902109 0.00876756 -4.02544e-05 0.0089079 1.5679e-07 272.826 
-0.87 -0.49 -1.96219 -0.135337 0.00906095 0.00876911 -7.11438e-06 0.00891173 1.57403e-07 271.881 
-0.95 -0.47 -0.622461 0.465336 0.00903404 0.00875502 -3.92318e-05 0.00890449 1.57002e-07 272.354 
-0.85 -0.49 -1.90953 0.132258 0.00905973 0.00876727 -4.21114e-06 0.00891633 1.57276e-07 272.242 
-0.93 -0.47 -1.19437 0.523273 0.00903701 0.00874067 -4.30921e-05 0.00889825 1.56919e-07 272.307 
-0.83 -0.49 -1.89961 -0.110105 0.00906248 0.00878272 -1.12144e-06 0.00892365 1.5737e-07 272.302 
-0.91 -0.47 -1.55695 0.645877 0.00904215 0.008725 -3.45134e-05 0.00890105 1.57116e-07 272.052 
-0.99 -0.45 -0.280884 0.774524 0.0090601 0.00877244 -3.16909e-05 0.00892893 1.57506e-07 272.227 
-0.81 -0.49 -1.99455 0.261492 0.00905606 0.00877048 -1.26271e-06 0.00891843 1.57306e-07 272.254 
-0.89 -0.47 -2.03255 0.719036 0.00903234 0.00872995 -4.1165e-05 0.00889439 1.57081e-07 271.909 
-0.97 -0.45 -0.712391 0.60124 0.00907236 0.00877891 -3.63056e-05 0.00894246 1.57458e-07 272.723 
-0.79 -0.49 -2.4869 0.221414 0.00904731 0.00875594 2.45054e-05 0.00891421 1.57349e-07 272.05 
-0.87 -0.47 -2.22146 -0.000431993 0.00904297 0.00874594 -1.85602e-05 0.00890929 1.57081e-07 272.365 
-0.95 -0.45 -0.946178 1.04412 0.00905485 0.0087609 -4.64429e-05 0.00891597 1.57114e-07 272.511 
-0.77 -0.49 -2.50376 -0.145835 0.00905374 0.00879399 3.02791e-05 0.00893716 1.57436e-07 272.6 
-0.85 -0.47 -2.28629 0.085285 0.00906491 0.00877276 -1.00547e-05 0.00892557 1.57229e-07 272.605 
-0.93 -0.45 -1.20117 0.739225 0.00905511 0.00871329 -4.72756e-05 0.00889545 1.57033e-07 272.024 
-0.83 -0.47 -2.66091 0.26852 0.00906964 0.0087701 -3.01748e-06 0.00892372 1.5726e-07 272.494 
-0.91 -0.45 -1.47941 1.10729 0.00905656 0.00873749 -3.03183e-05 0.0089017 1.57364e-07 271.642 
-0.99 -0.43 -0.305139 1.32018 0.00908285 0.00877392 -4.07653e-05 0.00894245 1.57731e-07 272.25 
-0.81 -0.47 -2.85732 0.372837 0.0090742 0.00876304 7.51061e-06 0.00893001 1.5756e-07 272.168 
-0.89 -0.45 -1.72388 0.82278 0.00905791 0.00871774 -3.61594e-05 0.00888744 1.56931e-07 271.957 
-0.97 -0.43 -0.529343 0.767441 0.00908314 0.00877321 -3.83587e-05 0.00894253 1.57487e-07 272.675 
-0.79 -0.47 -2.90445 0.371597 0.00908177 0.00873831 1.80892e-05 0.00892504 1.57426e-07 272.247 
-0.87 -0.45 -1.99576 0.350214 0.00906136 0.00874247 -3.39859e-05 0.00890524 1.56995e-07 272.389 
-0.95 -0.43 -0.811419 1.17727 0.00909711 0.00877217 -4.26772e-05 0.00894295 1.57836e-07 272.085 
-0.77 -0.47 -3.1273 0.102228 0.00909406 0.00880711 1.40209e-05 0.00895539 1.58061e-07 272.076 
-0.85 -0.45 -2.39894 0.220963 0.00906872 0.00875541 -1.73288e-05 0.00892122 1.57106e-07 272.685 
-0.93 -0.43 -1.16787 1.32236 0.00909549 0.00871812 -4.21437e-05 0.00891606 1.57209e-07 272.349 
-0.75 -0.47 -3.15942 0.101549 0.00908855 0.00880449 1.35356e-05 0.00895916 1.57663e-07 272.877 
-0.83 -0.45 -2.61664 0.537367 0.00908602 0.00876829 -1.91351e-05 0.00892986 1.57509e-07 272.251 
-0.91 -0.43 -1.6057 1.07526 0.00909069 0.00872544 -4.19295e-05 0.00890646 1.57256e-07 271.975 
-0.99 -0.41 -0.167464 1.6983 0.00909153 0.0087774 -4.44391e-05 0.00894875 1.57961e-07 272.047 
-0.81 -0.45 -2.8974 0.776278 0.0090984 0.00874019 -8.88439e-06 0.00892986 1.57406e-07 272.429 
-0.89 -0.43 -1.36469 1.03257 0.00909285 0.00871873 -3.93445e-05 0.00890688 1.5715e-07 272.171 
-0.97 -0.41 -0.513129 1.0993 0.00910777 0.00878298 -5.52101e-05 0.00895134 1.57651e-07 272.66 
-0.79 -0.45 -3.15538 0.678175 0.0091094 0.00874378 7.27961e-06 0.00893443 1.57728e-07 272.013 
-0.87 -0.43 -1.48666 0.628949 0.00910328 0.0087406 -3.98649e-05 0.00892877 1.57394e-07 272.418 
-0.95 -0.41 -0.738767 1.40786 0.00910456 0.00876648 -4.04197e-05 0.00894182 1.5763e-07 272.407 
-0.77 -0.45 -3.47844 0.224483 0.00912709 0.00879309 8.35192e-06 0.00896194 1.58113e-07 272.185 
-0.85 -0.43 -2.06864 0.844713 0.00910735 0.00874962 -3.20057e-05 0.00893644 1.57484e-07 272.495 
-0.93 -0.41 -1.14665 1.89033 0.00909771 0.00870797 -4.35845e-05 0.00890942 1.57217e-07 272.133 
-0.75 -0.45 -3.7299 0.210698 0.0091254 0.00881571 1.18876e-05 0.00897426 1.5853e-07 271.842 
-0.83 -0.43 -2.49784 0.914402 0.00910951 0.00876383 -1.44553e-05 0.00894182 1.57566e-07 272.516 
-0.91 -0.41 -1.22144 1.1749 0.00910687 0.00873077 -3.54974e-05 0.00892638 1.57585e-07 272.014 
-0.99 -0.39 -0.240341 2.09747 0.00909396 0.00878599 -6.36969e-05 0.00895489 1.58071e-07 272.044 
-0.81 -0.43 -3.06102 0.987063 0.00910765 0.0087292 -1.01665e-05 0.00893404 1.57597e-07 272.227 
-0.89 -0.41 -1.65987 1.1118 0.00910702 0.00873477 -4.10931e-05 0.00893122 1.57407e-07 272.468 
-0.97 -0.39 -0.711244 1.48183 0.00910454 0.00876946 -5.17058e-05 0.00894829 1.579e-07 272.138 
-0.79 -0.43 -3.30383 0.804683 0.00912041 0.00874092 -1.01624e-05 0.00894119 1.57769e-07 272.148 
-0.87 -0.41 -2.06487 1.0569 0.00909613 0.00872015 -3.94827e-05 0.00892446 1.57276e-07 272.49 
-0.95 -0.39 -1.05186 1.52489 0.0090985 0.00875122 -3.66324e-05 0.00892515 1.57364e-07 272.358 
-0.77 -0.43 -3.53981 0.752366 0.00914233 0.00878247 -3.46973e-06 0.00897256 1.58284e-07 272.213 
-0.85 -0.41 -2.36264 1.09055 0.00910485 0.00874929 -3.47849e-05 0.00894018 1.57699e-07 272.237 
-0.93 -0.39 -0.588756 1.85025 0.00911212 0.00872281 -2.82797e-05 0.00892248 1.57462e-07 272.108 
-0.83 -0.41 -2.66888 1.39388 0.00911816 0.0087442 -2.84323e-05 0.00894079 1.57695e-07 272.263 
-0.91 -0.39 -1.12415 1.81473 0.00910641 0.00872208 -5.52902e-05 0.00892245 1.57361e-07 272.281 
-0.99 -0.37 0.14384 2.30751 0.00910506 0.0087993 -6.13728e-05 0.00897329 1.58557e-07 271.768 
-0.81 -0.41 -2.86765 1.30829 0.00913187 0.0087305 -1.76342e-05 0.00894472 1.5793e-07 271.978 
-0.89 -0.39 -1.62585 1.55058 0.00911308 0.00873838 -4.62555e-05 0.0089472 1.57689e-07 272.469 
-0.97 -0.37 -0.148227 2.01631 0.00910196 0.00874902 -5.02119e-05 0.00894736 1.57822e-07 272.244 
-0.79 -0.41 -3.19296 1.16873 0.00914906 0.0087546 -2.41978e-05 0.00895816 1.58252e-07 271.832 
-0.87 -0.39 -1.95009 1.32985 0.0091283 0.00872153 -4.28205e-05 0.0089384 1.5756e-07 272.424 
-0.95 -0.37 -0.616788 1.7514 0.00912136 0.00874206 -5.31965e-05 0.00892979 1.57714e-07 271.894 
-0.77 -0.41 -3.93779 1.1878 0.00915079 0.00877247 -2.43566e-05 0.0089658 1.58344e-07 271.906 
-0.85 -0.39 -2.42886 1.47611 0.00914245 0.00874995 -5.09394e-05 0.00895626 1.582e-07 271.863 
-0.93 -0.37 -1.35856 1.93042 0.00912976 0.00872867 -4.68195e-05 0.00894563 1.57737e-07 272.338 
-0.75 -0.41 -4.21364 1.1861 0.00917357 0.00879749 -1.44411e-05 0.00900202 1.587e-07 272.391 
-0.83 -0.39 -2.63047 1.70006 0.00913958 0.0087254 -3.80849e-05 0.0089471 1.57965e-07 271.99 
-0.91 -0.37 -1.45455 2.37447 0.00914879 0.00873276 -5.75407e-05 0.00895331 1.57771e-07 272.512 
-0.99 -0.35 -0.198077 2.35668 0.00909556 0.00878975 -7.63039e-05 0.00895798 1.58278e-07 271.781 
-0.81 -0.39 -2.80709 1.36408 0.00915703 0.00873366 -2.92403e-05 0.00895839 1.5788e-07 272.48 
-0.89 -0.37 -1.6944 1.95427 0.00915528 0.00873199 -5.05448e-05 0.0089543 1.57793e-07 272.505 
-0.97 -0.35 -0.378193 2.38301 0.00910996 0.00873982 -6.6696e-05 0.00893667 1.57947e-07 271.704 
-0.79 -0.39 -3.31004 1.89755 0.00915668 0.00874565 -2.88263e-05 0.00896297 1.58074e-07 272.284 
-0.87 -0.37 -2.26854 1.86437 0.00916224 0.00872151 -5.48118e-05 0.00894887 1.57556e-07 272.749 
-0.95 -0.35 -0.551572 2.13208 0.00912046 0.00873844 -5.88844e-05 0.00893537 1.57826e-07 271.871 
-0.77 -0.39 -3.81489 1.64675 0.00916061 0.00877983 -2.8718e-05 0.008981 1.58551e-07 272.01 
-0.85 -0.37 -2.67109 1.78705 0.0091555 0.00874418 -4.72184e-05 0.00895283 1.58099e-07 271.932 
-0.93 -0.35 -1.09894 2.56902 0.00913493 0.00872929 -6.7495e-05 0.00894626 1.57831e-07 272.196 
-0.83 -0.37 -2.90607 1.77634 0.00914901 0.00871559 -4.45185e-05 0.00894675 1.57961e-07 271.985 
-0.91 -0.35 -1.4836 2.24502 0.00912571 0.00873532 -5.3314e-05 0.00892855 1.5747e-07 272.279 
-0.81 -0.37 -3.30651 1.68427 0.00915564 0.00872243 -3.26355e-05 0.00895378 1.58027e-07 272.085 
-0.89 -0.35 -1.68399 2.48019 0.00912732 0.00872413 -5.75131e-05 0.00893449 1.57527e-07 272.362 
-0.79 -0.37 -3.84088 2.2214 0.0091684 0.00875658 -3.3094e-05 0.008982 1.58356e-07 272.375 
-0.87 -0.35 -2.23694 2.16738 0.00913435 0.00872625 -5.18595e-05 0.00894633 1.57768e-07 272.306 
-0.77 -0.37 -4.07624 2.35881 0.00916714 0.00877536 -2.84341e-05 0.00897905 1.58466e-07 272.097 
-0.85 -0.35 -2.45124 2.37414 0.00915146 0.00872532 -5.30009e-05 0.00894689 1.58027e-07 271.876 
-0.83 -0.35 -3.24551 2.23332 0.00916897 0.00872177 -4.48325e-05 0.00895282 1.58106e-07 271.92 
-0.81 -0.35 -3.75061 2.29706 0.00917572 0.00871691 -5.71196e-05 0.00896093 1.58209e-07 271.989 
-0.79 -0.35 -3.89535 2.50506 0.00919779 0.00874468 -3.74483e-05 0.00897999 1.58458e-07 272.14 
-0.77 -0.35 -4.08642 2.46483 0.00920756 0.00877189 -3.13611e-05 0.00899372 1.58486e-07 272.508 
-0.75 -0.35 -4.33795 2.26011 0.00920268 0.0087862 -2.11254e-05 0.00900508 1.58885e-07 272.167 
-0.75 -0.49 -2.61102 0.128013 0.00907331 0.00880277 1.16108e-05 0.00894325 1.57728e-07 272.281 
-0.75 -0.43 -4.1198 0.642959 0.009159 0.00881729 4.21604e-07 0.00899918 1.58744e-07 272.23 
-0.75 -0.39 -4.85113 1.68213 0.0091613 0.0087852 -2.51572e-05 0.00898917 1.58512e-07 272.325 
-0.75 -0.37 -4.09053 2.12195 0.00916367 0.00878481 -2.39207e-05 0.00898277 1.58276e-07 272.537 
-0.77 -0.33 -4.06046 2.70465 0.00915993 0.00874219 -4.20423e-05 0.00895174 1.58125e-07 271.854 
-0.73 -0.49 -2.87957 0.255976 0.00907707 0.00882009 1.61787e-05 0.0089618 1.57958e-07 272.448 
-0.73 -0.47 -3.23373 0.150039 0.0090892 0.00880388 1.73801e-05 0.00896504 1.58178e-07 272.168 
-0.73 -0.45 -3.85172 0.35283 0.0091311 0.00880052 6.90296e-06 0.00898056 1.58523e-07 272.046 
-0.73 -0.43 -4.84038 0.861525 0.00916682 0.00880738 -3.45101e-06 0.0089997 1.58769e-07 272.203 
-0.73 -0.41 -4.81141 1.12191 0.0091882 0.00881673 -1.59261e-06 0.0090163 1.58996e-07 272.315 
-0.73 -0.39 -4.75474 1.4044 0.00916723 0.00879813 -1.095e-05 0.00899614 1.58597e-07 272.39 
-0.73 -0.37 -4.61898 1.64632 0.00916312 0.00878302 -3.23308e-05 0.00898041 1.5853e-07 272.029 
-0.73 -0.35 -4.38627 2.00242 0.00919478 0.00878847 -2.14566e-05 0.00899493 1.58719e-07 272.145 
-0.81 -0.29 -3.09035 3.53596 0.00915408 0.00870742 -7.36691e-05 0.00893263 1.57937e-07 271.598 
-0.89 -0.27 -1.88274 3.71353 0.00911492 0.00869202 -8.22623e-05 0.00891322 1.57344e-07 272.029 
-0.97 -0.25 -0.677582 3.74976 0.00909917 0.0087205 -0.000105235 0.00891671 1.57355e-07 272.115 
-0.83 -0.29 -2.98404 3.39128 0.00913628 0.00872537 -7.60809e-05 0.00894085 1.57593e-07 272.441 
-0.91 -0.27 -1.17831 4.06082 0.00911885 0.00870558 -9.0418e-05 0.00892764 1.57753e-07 271.763 
-0.99 -0.25 -0.175589 3.88967 0.00909285 0.00873566 -0.00010783 0.00893323 1.57666e-07 272.082 
-0.79 -0.29 -3.29103 3.27085 0.00917407 0.00872824 -5.68473e-05 0.008955 1.5829e-07 271.67 
-0.87 -0.27 -2.36029 3.8194 0.00912724 0.00872064 -7.6102e-05 0.00894019 1.57759e-07 272.134 
-0.95 -0.25 -0.574586 3.99496 0.00910421 0.00873388 -0.000110757 0.00892872 1.57701e-07 271.884 
-0.77 -0.29 -3.79479 3.40044 0.00918497 0.00874053 -4.5543e-05 0.00897339 1.58622e-07 271.659 
-0.85 -0.27 -2.49982 3.74106 0.00914494 0.00872059 -7.46321e-05 0.00893866 1.57808e-07 272.002 
-0.93 -0.25 -0.883857 4.22119 0.00909479 0.00870014 -0.000106862 0.00890872 1.57403e-07 271.789 
-0.75 -0.29 -4.48979 3.1319 0.00917833 0.00876397 -5.28983e-05 0.00898728 1.58636e-07 272.054 
-0.83 -0.27 -2.91139 3.63677 0.00915852 0.00873844 -7.06249e-05 0.00895914 1.58272e-07 271.828 
-0.91 -0.25 -1.38423 4.34363 0.00910532 0.00870194 -9.0322e-05 0.0089151 1.57526e-07 271.771 
-0.99 -0.23 -0.00811799 4.08548 0.00906105 0.00873353 -0.000126442 0.00892158 1.57439e-07 272.12 
-0.81 -0.27 -3.44446 3.85151 0.00914673 0.00870904 -8.28502e-05 0.0089318 1.57819e-07 271.775 
-0.89 -0.25 -1.81647 4.32758 0.00911212 0.00868194 -8.95606e-05 0.00891058 1.57243e-07 272.122 
-0.97 -0.23 -0.0669207 4.07232 0.00908301 0.0087304 -0.000124287 0.00892276 1.57586e-07 271.901 
-0.79 -0.27 -3.92568 3.58557 0.00915806 0.00870823 -7.6502e-05 0.00893588 1.58197e-07 271.25 
-0.87 -0.25 -2.28143 4.24632 0.00913845 0.00871263 -8.18235e-05 0.00894159 1.57972e-07 271.81 
-0.95 -0.23 -0.754516 4.20725 0.00909734 0.00871305 -0.000123924 0.00891824 1.57357e-07 272.159 
-0.77 -0.27 -4.01994 3.8803 0.00917727 0.00874188 -5.7499e-05 0.0089668 1.58452e-07 271.75 
-0.85 -0.25 -2.64135 4.03112 0.00915752 0.00872735 -9.62771e-05 0.00895089 1.57975e-07 272.086 
-0.93 -0.23 -1.11286 4.60639 0.00911331 0.00870666 -0.000107056 0.00892105 1.57549e-07 271.914 
-0.83 -0.25 -3.09765 4.07634 0.00916227 0.00871102 -8.47409e-05 0.00893597 1.58147e-07 271.338 
-0.91 -0.23 -1.33994 4.77841 0.00912393 0.00868171 -0.000102345 0.00891563 1.57317e-07 272.149 
-0.99 -0.21 0.0741312 3.93569 0.00911431 0.0087452 -0.000133097 0.00895347 1.5823e-07 271.727 
-0.81 -0.25 -3.48237 4.25539 0.00917354 0.00872772 -7.29479e-05 0.00895787 1.58343e-07 271.666 
-0.89 -0.23 -1.86572 4.92627 0.00914124 0.00868665 -9.56755e-05 0.00893107 1.57747e-07 271.877 
-0.97 -0.21 0.113717 4.45778 0.00911322 0.00870999 -0.000130655 0.00893039 1.57797e-07 271.769 
-0.79 -0.25 -3.87409 4.20231 0.00915565 0.00869788 -8.24783e-05 0.0089336 1.58095e-07 271.356 
-0.87 -0.23 -2.22225 4.5225 0.00915605 0.00871869 -0.000111815 0.00894371 1.58034e-07 271.767 
-0.95 -0.21 -0.266885 4.7268 0.00910636 0.00870776 -0.000122779 0.00892632 1.57414e-07 272.307 
-0.77 -0.25 -4.48715 3.91241 0.00916255 0.00872592 -8.29949e-05 0.00894468 1.58124e-07 271.642 
-0.85 -0.23 -2.66806 4.62528 0.00914121 0.00872135 -8.99014e-05 0.00893746 1.57866e-07 271.866 
-0.93 -0.21 -0.985164 5.06305 0.00911428 0.00869731 -0.000118168 0.00891157 1.57335e-07 271.993 
-0.83 -0.23 -3.14232 4.3628 0.00913478 0.00870536 -8.32041e-05 0.0089255 1.57723e-07 271.749 
-0.91 -0.21 -1.3594 5.08076 0.00912555 0.00867932 -0.000120686 0.00891585 1.57568e-07 271.721 
-0.99 -0.19 -0.152064 4.11343 0.00908662 0.00874073 -0.00014177 0.00893264 1.578e-07 271.834 
-0.81 -0.23 -3.46367 4.26493 0.00915329 0.00871871 -9.2678e-05 0.00895118 1.5804e-07 271.984 
-0.89 -0.21 -1.59937 5.32506 0.00914383 0.0086981 -0.000113079 0.00894908 1.57998e-07 271.993 
-0.97 -0.19 -0.717499 4.73608 0.00910121 0.0087037 -0.00014345 0.00890515 1.5758e-07 271.375 
-0.79 -0.23 -3.61108 4.77338 0.00918153 0.00870864 -8.18458e-05 0.00895036 1.58074e-07 271.901 
-0.87 -0.21 -2.00045 4.98856 0.00913985 0.00869147 -0.00010947 0.00893243 1.58058e-07 271.384 
-0.95 -0.19 -0.770642 5.09441 0.00910834 0.00871085 -0.000121505 0.00890816 1.57352e-07 271.861 
-0.77 -0.23 -3.94177 4.33653 0.00918388 0.00872827 -9.05931e-05 0.00896538 1.5835e-07 271.883 
-0.85 -0.21 -2.89072 5.15589 0.00915411 0.00871032 -8.84693e-05 0.00894687 1.57913e-07 272.073 
-0.93 -0.19 -0.785227 5.4741 0.00912048 0.0086925 -0.00012692 0.00892443 1.57767e-07 271.641 
-0.75 -0.23 -4.44503 4.06927 0.00918539 0.00875304 -8.93272e-05 0.00898498 1.58735e-07 271.815 
-0.83 -0.21 -3.4626 4.69142 0.00917839 0.00872146 -9.56698e-05 0.00896107 1.58113e-07 272.159 
-0.91 -0.19 -1.25493 5.61907 0.00911958 0.00867394 -0.000121212 0.00890369 1.57282e-07 271.844 
-0.81 -0.21 -3.75106 4.73384 0.00916435 0.00870908 -9.0693e-05 0.0089588 1.58266e-07 271.828 
-0.89 -0.19 -1.7474 5.57572 0.0091233 0.00868656 -0.000120368 0.00892352 1.57536e-07 272.011 
-0.79 -0.21 -4.06245 5.04806 0.00916092 0.0087087 -0.000101056 0.00894646 1.58057e-07 271.811 
-0.87 -0.19 -2.18561 5.57392 0.009133 0.00869105 -0.000103145 0.00892967 1.57753e-07 271.824 
-0.77 -0.21 -4.30471 4.728 0.00916975 0.00872956 -8.76689e-05 0.0089538 1.58192e-07 271.802 
-0.85 -0.19 -2.30103 5.6325 0.00913526 0.00869585 -0.000110841 0.008926 1.58034e-07 271.229 
-0.75 -0.21 -4.66636 4.54825 0.00917629 0.00874636 -9.81685e-05 0.00897673 1.58538e-07 271.904 
-0.83 -0.19 -2.75886 5.32432 0.00912527 0.0087193 -9.94783e-05 0.00893389 1.57794e-07 271.882 
-0.81 -0.19 -3.46025 5.14112 0.00914306 0.00870494 -0.000104417 0.00893202 1.57915e-07 271.618 
-0.79 -0.19 -3.94507 5.26106 0.00915773 0.00871412 -9.09565e-05 0.00895496 1.58305e-07 271.644 
-0.77 -0.19 -4.11301 5.21375 0.00916582 0.00873915 -0.000106144 0.00896817 1.58737e-07 271.304 
-0.99 -0.33 -0.0795487 2.68617 0.00909831 0.00877945 -8.42139e-05 0.00895443 1.58025e-07 272.109 
-0.97 -0.33 -0.439208 2.59894 0.00911606 0.00873753 -8.65278e-05 0.00893971 1.57881e-07 271.91 
-0.91 -0.33 -1.27693 2.67119 0.00914227 0.00873708 -6.06665e-05 0.00893502 1.57795e-07 271.914 
-0.99 -0.31 -0.199351 3.12202 0.00908968 0.00876494 -8.59412e-05 0.00893708 1.57792e-07 271.983 
-0.97 -0.31 -0.418512 2.62384 0.00909175 0.0087329 -7.92629e-05 0.00892322 1.5766e-07 271.788 
-0.87 -0.33 -2.20783 2.67494 0.00915218 0.00873114 -6.90705e-05 0.00895312 1.58097e-07 271.945 
-0.95 -0.31 -1.08621 3.14268 0.00909748 0.00872046 -8.32436e-05 0.00891992 1.57542e-07 271.89 
-0.85 -0.33 -2.47354 2.61577 0.00914962 0.0087233 -6.354e-05 0.00895491 1.58053e-07 272.075 
-0.93 -0.31 -1.28896 3.18394 0.00911662 0.00872709 -7.86328e-05 0.00892819 1.57636e-07 271.981 
-0.91 -0.31 -1.78169 2.91248 0.009146 0.00872798 -6.94757e-05 0.00894319 1.57751e-07 272.238 
-0.99 -0.29 -0.0450335 3.25044 0.00905912 0.00875045 -0.000105385 0.00892165 1.5756e-07 271.913 
-0.81 -0.33 -3.35998 2.71374 0.00915284 0.00871407 -4.80535e-05 0.00894816 1.57836e-07 272.243 
-0.89 -0.31 -1.9945 3.21074 0.00915303 0.00872013 -6.58742e-05 0.00894778 1.5803e-07 271.898 
-0.97 -0.29 -0.503291 3.37686 0.00908367 0.0087279 -8.9752e-05 0.0089178 1.57635e-07 271.666 
-0.87 -0.31 -2.12201 3.09085 0.00915304 0.0087286 -7.10575e-05 0.00895166 1.58217e-07 271.694 
-0.95 -0.29 -0.683873 3.52487 0.00909731 0.00871337 -9.17072e-05 0.00891962 1.5745e-07 272.042 
-0.85 -0.31 -2.7678 2.8798 0.0091423 0.00871211 -5.65089e-05 0.00894263 1.57865e-07 272.025 
-0.93 -0.29 -1.17859 3.29541 0.00911299 0.0087377 -9.60488e-05 0.00893069 1.5763e-07 272.067 
-0.83 -0.31 -2.9009 3.23128 0.00914466 0.00872452 -5.2758e-05 0.00894957 1.57728e-07 272.474 
-0.91 -0.29 -1.40782 3.44082 0.00910274 0.00870247 -8.86514e-05 0.00891632 1.57532e-07 271.798 
-0.99 -0.27 -0.116594 3.49763 0.00909322 0.0087477 -0.000110776 0.00893779 1.57831e-07 271.938 
-0.81 -0.31 -3.37005 3.15189 0.00915351 0.00871369 -5.52026e-05 0.00894637 1.57749e-07 272.339 
-0.89 -0.29 -1.70848 3.39501 0.00911986 0.0087161 -7.85518e-05 0.00892566 1.57672e-07 271.842 
-0.97 -0.27 -0.202268 3.59636 0.00908436 0.00871534 -0.000106969 0.00891977 1.57413e-07 272.11 
-0.79 -0.31 -3.67915 3.04296 0.00915392 0.00874223 -5.29946e-05 0.00895691 1.58273e-07 271.758 
-0.87 -0.29 -2.1455 3.48922 0.00911953 0.00871784 -5.24309e-05 0.00892492 1.5774e-07 271.701 
-0.95 -0.27 -0.571414 3.82998 0.00910084 0.00872524 -0.000101821 0.00892247 1.57691e-07 271.712 
-0.77 -0.31 -3.87405 2.96678 0.00915276 0.00873328 -4.8345e-05 0.00894531 1.58341e-07 271.29 
-0.85 -0.29 -2.6253 3.50562 0.00912979 0.00871234 -6.1035e-05 0.00893634 1.58055e-07 271.508 
-0.93 -0.27 -0.804717 3.61774 0.00910741 0.00871404 -9.65117e-05 0.0089233 1.57363e-07 272.304 
-0.95 -0.33 -0.635738 2.52015 0.00912563 0.00872441 -6.4209e-05 0.00893658 1.57735e-07 272.065 
-0.93 -0.33 -1.09966 2.9729 0.00913 0.00872792 -6.01737e-05 0.00893798 1.57624e-07 272.3 
-0.89 -0.33 -1.82357 2.73085 0.0091441 0.0087169 -5.89747e-05 0.00893655 1.57682e-07 272.156 
-0.83 -0.33 -2.91824 2.94571 0.0091441 0.00871825 -5.98466e-05 0.00895481 1.57991e-07 272.178 
-0.75 -0.31 -4.35319 2.61185 0.0091739 0.00876981 -4.27658e-05 0.00898466 1.58677e-07 271.905 
-0.75 -0.27 -4.32741 3.8902 0.00919982 0.0087621 -6.20726e-05 0.00897959 1.58597e-07 271.89 
-0.75 -0.25 -4.45345 3.93338 0.00918006 0.00876892 -6.51826e-05 0.00897725 1.58677e-07 271.681 
-0.75 -0.19 -4.40046 4.9111 0.00915998 0.00873702 -9.60136e-05 0.00896626 1.58656e-07 271.384 
-0.79 -0.33 -3.82342 2.76165 0.00915014 0.00874571 -5.00975e-05 0.00895582 1.5811e-07 272.005 
-0.75 -0.33 -4.18114 2.13775 0.00916949 0.00877927 -2.24168e-05 0.00898702 1.5879e-07 271.783 
-0.81 -0.17 -3.45555 5.91398 0.0091338 0.00870409 -0.000105862 0.00892165 1.57737e-07 271.607 
-0.79 -0.17 -4.09546 5.6238 0.00913269 0.00872392 -0.000109843 0.00895037 1.58045e-07 271.951 
-0.75 -0.17 -4.33112 5.30634 0.00916906 0.00873346 -0.000111824 0.00896349 1.5845e-07 271.654 
-0.73 -0.31 -4.93962 2.84522 0.00918655 0.00879443 -4.24635e-05 0.00899813 1.58694e-07 272.284 
-0.73 -0.29 -4.4923 2.98302 0.00918521 0.00878819 -4.80996e-05 0.00900132 1.59128e-07 271.638 
-0.73 -0.27 -4.98106 3.06217 0.00920753 0.00878683 -6.34426e-05 0.00900669 1.59017e-07 271.99 
-0.73 -0.25 -4.48931 3.54475 0.00919082 0.00878172 -6.65584e-05 0.00899991 1.59138e-07 271.578 
-0.73 -0.23 -4.89186 3.86779 0.00919369 0.00877573 -6.80537e-05 0.00898914 1.58698e-07 272.006 
-0.73 -0.21 -5.03033 4.14094 0.00919222 0.0087653 -8.82451e-05 0.00897697 1.58505e-07 271.968 
-0.73 -0.19 -4.65083 4.68609 0.00916048 0.00876747 -0.000101287 0.00897432 1.58615e-07 271.698 
-0.79 -0.05 -3.22877 7.64666 0.00904949 0.00870161 -0.000155668 0.00888548 1.57445e-07 271.008 
-0.87 -0.03 -2.38889 8.68734 0.00898011 0.00861111 -0.000184795 0.0088137 1.55989e-07 271.328 
-0.83 -0.05 -2.49585 8.22326 0.00901787 0.00869171 -0.000150117 0.00888298 1.56992e-07 271.713 
-0.91 -0.03 -1.85465 8.15857 0.00899166 0.00864094 -0.000188098 0.00882982 1.56196e-07 271.464 
-0.81 -0.05 -2.82807 7.88001 0.00903719 0.00868641 -0.000136223 0.00888043 1.5744e-07 270.864 
-0.89 -0.03 -1.94096 8.50013 0.00897529 0.00863763 -0.000175418 0.0088233 1.56163e-07 271.321 
-0.77 -0.05 -3.61956 6.90092 0.00906793 0.00874536 -0.000155479 0.00892242 1.57849e-07 271.439 
-0.85 -0.03 -2.44633 8.14585 0.00898497 0.0086444 -0.000174816 0.00883961 1.56475e-07 271.28 
-0.75 -0.05 -3.95155 7.03007 0.00907365 0.00876333 -0.000171433 0.00893119 1.57805e-07 271.781 
-0.83 -0.03 -2.57888 8.54795 0.00901181 0.00867939 -0.000170452 0.00886613 1.57063e-07 271.075 
-0.81 -0.03 -3.04642 8.15615 0.00901839 0.0086782 -0.000161617 0.00887041 1.57235e-07 270.91 
-0.79 -0.03 -3.0951 8.16289 0.0090484 0.00871391 -0.000157004 0.00889394 1.57347e-07 271.435 
-0.77 -0.03 -3.63975 7.19149 0.0090442 0.00873874 -0.000163531 0.0089077 1.57488e-07 271.611 
-0.95 -0.17 -1.04446 5.27192 0.00908031 0.00870334 -0.000151073 0.00889656 1.57384e-07 271.451 
-0.99 -0.15 -0.254083 4.75938 0.00904758 0.00871388 -0.000167926 0.00890362 1.57302e-07 271.809 
-0.89 -0.17 -1.55353 5.9529 0.00911394 0.00867697 -0.000118727 0.00890961 1.57257e-07 272.069 
-0.97 -0.15 -0.638672 5.6579 0.00906774 0.0087094 -0.000165451 0.00890283 1.57318e-07 271.756 
-0.95 -0.15 -0.999094 5.62035 0.00907992 0.00869447 -0.000152107 0.00890296 1.57475e-07 271.49 
-0.93 -0.15 -1.25884 5.66872 0.00907584 0.00867074 -0.000141611 0.00889854 1.57315e-07 271.631 
-0.83 -0.17 -2.88097 5.82956 0.00913499 0.00872192 -0.000102033 0.0089412 1.58093e-07 271.59 
-0.91 -0.15 -1.63242 6.4158 0.00908214 0.00867652 -0.000146115 0.00889656 1.57327e-07 271.55 
-0.99 -0.13 -0.288497 5.2116 0.0090529 0.00871295 -0.000188944 0.00889958 1.57495e-07 271.353 
-0.89 -0.15 -1.7133 6.15618 0.0090851 0.00865441 -0.000124449 0.00888685 1.57144e-07 271.57 
-0.97 -0.13 -0.494513 5.93516 0.0090662 0.00869303 -0.000161174 0.0088873 1.57206e-07 271.477 
-0.87 -0.15 -2.00561 6.27484 0.00910152 0.00869202 -0.000118146 0.0089196 1.57375e-07 272.17 
-0.95 -0.13 -0.805033 6.14653 0.00907192 0.00867828 -0.000161564 0.00888959 1.5738e-07 271.245 
-0.77 -0.17 -4.19574 5.13466 0.00915315 0.00873316 -0.000108388 0.00895328 1.58435e-07 271.37 
-0.85 -0.15 -2.44138 6.39451 0.0091097 0.00868644 -0.000112065 0.00891555 1.57567e-07 271.715 
-0.93 -0.13 -1.32371 5.9375 0.0090831 0.00867974 -0.000150253 0.00890012 1.57175e-07 271.922 
-0.83 -0.15 -2.89843 6.04746 0.00912357 0.00871463 -0.000121168 0.00893755 1.57989e-07 271.658 
-0.91 -0.13 -1.67664 6.67223 0.00908629 0.00866945 -0.000147179 0.00889916 1.57281e-07 271.709 
-0.99 -0.11 -0.115955 5.57614 0.00904134 0.00869333 -0.000177742 0.00888542 1.57032e-07 271.719 
-0.81 -0.15 -3.15532 6.45168 0.00913573 0.00871684 -0.000108456 0.00894555 1.57909e-07 272.039 
-0.89 -0.13 -2.08824 6.13549 0.00909914 0.00864559 -0.000138031 0.00889159 1.57445e-07 271.195 
-0.97 -0.11 -0.588556 6.23327 0.00903467 0.00868722 -0.000181418 0.00888023 1.5712e-07 271.408 
-0.79 -0.15 -3.64302 5.92089 0.00914096 0.00872923 -0.000123663 0.00894914 1.58254e-07 271.555 
-0.87 -0.13 -2.44212 6.79798 0.00910674 0.00867301 -0.000129344 0.00891701 1.57738e-07 271.464 
-0.95 -0.11 -0.865705 6.43652 0.00905119 0.00866699 -0.000174231 0.00887594 1.56984e-07 271.512 
-0.77 -0.15 -4.11466 5.40204 0.00914822 0.00872696 -0.000120517 0.00894797 1.58465e-07 271.157 
-0.85 -0.13 -2.78941 6.65926 0.00913201 0.00869845 -0.000132299 0.00892962 1.57905e-07 271.561 
-0.93 -0.11 -1.12893 6.42442 0.0090785 0.00867675 -0.000167226 0.00890425 1.57461e-07 271.553 
-0.75 -0.15 -4.52571 5.6832 0.00914497 0.00873976 -0.000116646 0.00895903 1.58526e-07 271.387 
-0.83 -0.13 -3.01181 6.58341 0.00914019 0.00870494 -0.00012474 0.00894484 1.57871e-07 272.083 
-0.91 -0.11 -1.54589 6.91482 0.00908247 0.00866488 -0.000153232 0.00888423 1.57168e-07 271.447 
-0.99 -0.09 0.0405592 5.92267 0.00898434 0.0086728 -0.000208439 0.00884601 1.56423e-07 271.567 
-0.81 -0.13 -3.46765 6.74725 0.00912307 0.00870982 -0.000114404 0.00893255 1.57962e-07 271.552 
-0.89 -0.11 -1.86661 6.88129 0.00909068 0.00864101 -0.000148399 0.00887808 1.57322e-07 270.994 
-0.97 -0.09 -0.574058 6.85124 0.00902229 0.00868538 -0.000194914 0.00888227 1.57187e-07 271.354 
-0.79 -0.13 -3.41558 6.2531 0.00913193 0.00873731 -0.00012368 0.00895199 1.58143e-07 271.832 
-0.87 -0.11 -2.5127 7.10833 0.00909723 0.00866751 -0.000147378 0.00890436 1.57795e-07 270.981 
-0.95 -0.09 -0.813299 6.45237 0.00903837 0.00867405 -0.000181345 0.00888233 1.57226e-07 271.289 
-0.77 -0.13 -3.83515 5.94903 0.0091278 0.00871424 -0.000121746 0.0089345 1.58012e-07 271.525 
-0.85 -0.11 -2.68255 6.86951 0.00910258 0.00869311 -0.00013156 0.00890589 1.57611e-07 271.345 
-0.93 -0.09 -0.986062 6.76822 0.00902422 0.00864633 -0.000181535 0.00885904 1.56918e-07 271.11 
-0.83 -0.11 -3.11522 7.24743 0.00909694 0.00868896 -0.000125859 0.00890971 1.57519e-07 271.62 
-0.91 -0.09 -1.24726 7.23515 0.00902652 0.00865172 -0.00015352 0.00886084 1.56795e-07 271.376 
-0.99 -0.07 -0.575561 6.27873 0.00899042 0.00866587 -0.000215795 0.00884481 1.56505e-07 271.389 
-0.81 -0.11 -3.37084 6.52451 0.00913463 0.00871422 -0.000130367 0.00893826 1.57895e-07 271.84 
-0.89 -0.09 -1.92035 7.46637 0.00903631 0.00864626 -0.000164685 0.00885889 1.57001e-07 270.962 
-0.97 -0.07 -0.581057 7.00991 0.00898231 0.00866358 -0.000205776 0.00884873 1.56549e-07 271.432 
-0.79 -0.11 -3.46104 6.501 0.009136 0.00872552 -0.00012096 0.00894802 1.58265e-07 271.502 
-0.87 -0.09 -2.3573 7.51437 0.00906621 0.00865781 -0.000160214 0.00888489 1.57527e-07 270.849 
-0.95 -0.07 -0.718891 6.62972 0.00898725 0.00867286 -0.000183531 0.00885096 1.56464e-07 271.647 
-0.77 -0.11 -3.92787 6.32119 0.00913694 0.00872067 -0.000127522 0.00895222 1.5819e-07 271.757 
-0.85 -0.09 -2.64783 7.18505 0.00907551 0.00866693 -0.00014449 0.00888666 1.57351e-07 271.206 
-0.93 -0.07 -1.17671 7.19893 0.00898847 0.00863411 -0.000178093 0.00884035 1.56446e-07 271.353 
-0.75 -0.11 -4.32437 6.11446 0.00914396 0.0087572 -0.000130459 0.00896982 1.58647e-07 271.507 
-0.83 -0.09 -2.9739 7.23662 0.00909877 0.00871109 -0.000143823 0.00892905 1.57755e-07 271.803 
-0.91 -0.07 -1.52123 7.39334 0.00901465 0.00863915 -0.000181185 0.00885219 1.56628e-07 271.402 
-0.99 -0.05 0.152301 6.69565 0.00897194 0.00866015 -0.000215923 0.00883404 1.56262e-07 271.479 
-0.81 -0.09 -3.3315 7.07998 0.00908975 0.0087105 -0.000147841 0.00891322 1.57739e-07 271.347 
-0.89 -0.07 -1.69447 7.96904 0.00903703 0.00866709 -0.000179924 0.00886939 1.57082e-07 271.143 
-0.97 -0.05 -0.331646 7.08234 0.008983 0.00865725 -0.000212942 0.0088455 1.56526e-07 271.373 
-0.79 -0.09 -3.8453 6.79658 0.00909861 0.00871984 -0.000126185 0.0089239 1.57922e-07 271.357 
-0.87 -0.07 -2.01927 7.94365 0.00902935 0.00862948 -0.000163073 0.00885809 1.56935e-07 271.051 
-0.95 -0.05 -0.516311 7.06994 0.00898723 0.0086425 -0.000196612 0.00883945 1.56448e-07 271.322 
-0.77 -0.09 -3.9869 6.70468 0.0090992 0.00872505 -0.000119803 0.00894289 1.58017e-07 271.771 
-0.85 -0.07 -2.47918 7.68344 0.00904082 0.00866175 -0.000154808 0.00887302 1.56943e-07 271.493 
-0.93 -0.05 -1.15539 7.59165 0.00899568 0.00863765 -0.000176051 0.00883795 1.56472e-07 271.235 
-0.75 -0.09 -4.29053 6.42173 0.00908412 0.0087473 -0.000129826 0.00893829 1.58047e-07 271.58 
-0.83 -0.07 -3.05342 7.7387 0.00904619 0.00870175 -0.000144552 0.00889323 1.57181e-07 271.7 
-0.91 -0.05 -1.37707 7.8728 0.00899859 0.00864105 -0.000189119 0.00884307 1.56584e-07 271.198 
-0.99 -0.03 -0.15175 6.79889 0.0089547 0.00865953 -0.000227538 0.00882249 1.56175e-07 271.275 
-0.81 -0.07 -3.58319 7.64775 0.00904436 0.00870691 -0.000149605 0.00889357 1.57374e-07 271.378 
-0.89 -0.05 -1.76143 8.20514 0.00900211 0.00865462 -0.000186422 0.00884821 1.56777e-07 271.021 
-0.97 -0.03 -0.411174 7.51827 0.00895905 0.00863329 -0.000214453 0.0088184 1.56213e-07 271.083 