ITEM: TIMESTEP
942000
ITEM: NUMBER OF CELLS
5000
ITEM: BOX BOUNDS ss ss pp
-1 1
-0.5 0.5
-0.5 0.5
ITEM: CELLS xc yc f_U[*] f_V[*] f_Tau[1] f_Tau[2] f_Tau[3] f_Press[*] f_Mrho[*] f_Ttra[*] 
-0.99 -0.49 -0.207733 0.323961 0.00898857 0.00874941 -3.07696e-05 0.00887937 1.56637e-07 272.22 
-0.97 -0.49 -0.634452 0.0728314 0.00898607 0.00875344 -3.10523e-05 0.00887942 1.56653e-07 272.193 
-0.95 -0.49 -0.759048 0.0327344 0.00898944 0.00874243 -3.38876e-05 0.00887329 1.56631e-07 272.043 
-0.93 -0.49 -0.945602 0.143948 0.00900124 0.00875449 -2.31578e-05 0.00888532 1.56819e-07 272.084 
-0.91 -0.49 -1.20114 0.0341682 0.00900769 0.00873245 -1.99369e-05 0.00887029 1.56717e-07 271.801 
-0.99 -0.47 -0.20325 0.616534 0.00901485 0.00877228 -1.66918e-05 0.00890174 1.56994e-07 272.285 
-0.89 -0.49 -1.58233 0.26155 0.00902525 0.0087446 -2.47705e-05 0.00888593 1.56782e-07 272.169 
-0.97 -0.47 -0.388034 0.403873 0.00901276 0.00875168 -3.61353e-05 0.00889532 1.56775e-07 272.467 
-0.87 -0.49 -1.78644 -0.00782671 0.00904474 0.00877044 -1.45302e-05 0.00890662 1.57151e-07 272.162 
-0.95 -0.47 -0.772304 0.34471 0.00902453 0.00874761 -3.41949e-05 0.00889573 1.56826e-07 272.392 
-0.85 -0.49 -1.93046 0.175288 0.00904619 0.00875114 -4.92231e-06 0.00889596 1.5682e-07 272.409 
-0.93 -0.47 -1.01259 0.216682 0.00902588 0.00874448 -3.71381e-05 0.00888982 1.56784e-07 272.284 
-0.83 -0.49 -1.96851 -0.109689 0.00905138 0.00876386 2.11907e-06 0.00891268 1.57157e-07 272.336 
-0.91 -0.47 -1.32653 0.670067 0.00903692 0.00873767 -3.10664e-05 0.00889103 1.56925e-07 272.075 
-0.99 -0.45 -0.110473 0.879571 0.00904721 0.00877726 -2.87086e-05 0.00892042 1.57327e-07 272.279 
-0.81 -0.49 -2.15477 0.276765 0.00905645 0.00876994 1.25028e-05 0.00892288 1.57384e-07 272.254 
-0.89 -0.47 -1.69886 0.422768 0.00904013 0.00874238 -3.45056e-05 0.00889062 1.56907e-07 272.095 
-0.97 -0.45 -0.362821 0.720635 0.00905716 0.00876396 -3.74391e-05 0.00891667 1.57154e-07 272.463 
-0.79 -0.49 -2.50769 0.0819342 0.0090622 0.00877684 1.82304e-05 0.00892687 1.574e-07 272.349 
-0.87 -0.47 -1.92018 0.205089 0.00904375 0.00875063 -2.17547e-05 0.00890849 1.5706e-07 272.376 
-0.95 -0.45 -0.672513 0.740782 0.00905168 0.00874518 -4.06308e-05 0.00890508 1.56896e-07 272.556 
-0.77 -0.49 -2.56161 0.0110835 0.00906914 0.00879891 2.84705e-05 0.00894462 1.57668e-07 272.425 
-0.85 -0.47 -2.10864 0.262281 0.00905326 0.00875048 -9.8578e-06 0.00890908 1.57065e-07 272.386 
-0.93 -0.45 -1.18336 0.471767 0.00906158 0.00873819 -4.48973e-05 0.00890471 1.57144e-07 272.116 
-0.83 -0.47 -2.38954 0.130006 0.00905941 0.0087526 -6.95062e-06 0.0089153 1.57156e-07 272.418 
-0.91 -0.45 -1.34393 0.882049 0.00906177 0.00874376 -3.53063e-05 0.0089021 1.57163e-07 272.002 
-0.99 -0.43 -0.223413 1.18067 0.00908095 0.0087784 -3.82334e-05 0.00894211 1.57789e-07 272.14 
-0.81 -0.47 -2.60461 0.544838 0.00907049 0.00876126 -8.68968e-07 0.00893041 1.57467e-07 272.34 
-0.89 -0.45 -1.71316 0.719362 0.00907209 0.00873432 -3.8031e-05 0.00890046 1.57145e-07 271.983 
-0.97 -0.43 -0.500215 0.986821 0.00908537 0.00877098 -3.67099e-05 0.00893869 1.5757e-07 272.415 
-0.79 -0.47 -2.89301 0.356455 0.0090844 0.00876514 1.199e-05 0.0089416 1.57745e-07 272.201 
-0.87 -0.45 -1.99316 0.602232 0.00907602 0.00873838 -2.39774e-05 0.00891017 1.57079e-07 272.395 
-0.95 -0.43 -0.669332 0.945863 0.00908805 0.00874795 -4.46207e-05 0.00892406 1.57446e-07 272.184 
-0.77 -0.47 -3.11935 0.0920014 0.00909965 0.00879578 1.52034e-05 0.00895539 1.57941e-07 272.282 
-0.85 -0.45 -2.35039 0.40996 0.00908537 0.00873947 -1.89368e-05 0.00891947 1.57219e-07 272.437 
-0.93 -0.43 -0.896788 1.02495 0.00908784 0.00873973 -4.01178e-05 0.00891879 1.57331e-07 272.221 
-0.75 -0.47 -3.28951 0.341815 0.00910538 0.00880673 1.94269e-05 0.00896122 1.5778e-07 272.737 
-0.83 -0.45 -2.65389 0.414673 0.00909879 0.00875694 -1.37004e-05 0.00893539 1.57636e-07 272.2 
-0.91 -0.43 -1.54809 1.04193 0.00908607 0.00874089 -4.34133e-05 0.00891142 1.57202e-07 272.219 
-0.99 -0.41 -0.202199 1.63509 0.00908466 0.00877237 -5.03502e-05 0.0089383 1.57756e-07 272.081 
-0.81 -0.45 -2.82069 0.808115 0.00909597 0.00874653 -1.03581e-05 0.0089324 1.57536e-07 272.282 
-0.89 -0.43 -1.53962 1.10852 0.00907762 0.00872341 -3.85635e-05 0.00890536 1.57208e-07 272.025 
-0.97 -0.41 -0.390531 1.06613 0.0090989 0.00877305 -4.56024e-05 0.00894321 1.57622e-07 272.462 
-0.79 -0.45 -3.01558 0.617477 0.00910316 0.00875818 -8.78256e-08 0.00893876 1.57713e-07 272.169 
-0.87 -0.43 -1.92222 0.804807 0.00908601 0.00873387 -3.93346e-05 0.00891807 1.57276e-07 272.294 
-0.95 -0.41 -0.589632 1.26705 0.00910372 0.00875619 -4.13981e-05 0.00894094 1.57672e-07 272.306 
-0.77 -0.45 -3.46266 0.447104 0.00911244 0.00878898 8.7704e-06 0.0089567 1.57884e-07 272.421 
-0.85 -0.43 -2.11779 0.819025 0.00910089 0.00873662 -2.94334e-05 0.00892464 1.57479e-07 272.144 
-0.93 -0.41 -1.1679 1.5198 0.0090952 0.00872657 -4.22361e-05 0.00892152 1.57462e-07 272.079 
-0.75 -0.45 -3.72367 0.487621 0.00911357 0.00879799 1.59937e-05 0.00896035 1.58014e-07 272.308 
-0.83 -0.43 -2.50591 0.791653 0.00910288 0.00874339 -1.70387e-05 0.00892946 1.57447e-07 272.346 
-0.91 -0.41 -1.29082 1.28896 0.00910148 0.00873913 -3.68139e-05 0.00892842 1.57685e-07 271.904 
-0.99 -0.39 -0.121232 1.84603 0.00908283 0.00877383 -5.38967e-05 0.00894015 1.57835e-07 272.002 
-0.81 -0.43 -3.03776 1.00903 0.00911582 0.00874536 -1.19241e-05 0.00893882 1.57713e-07 272.172 
-0.89 -0.41 -1.69552 1.34104 0.00910533 0.00873746 -4.03901e-05 0.00892722 1.57446e-07 272.279 
-0.97 -0.39 -0.562131 1.3381 0.00908855 0.00876782 -5.12505e-05 0.00893572 1.5775e-07 272.013 
-0.79 -0.43 -3.26566 0.884252 0.00912235 0.00875004 -7.90887e-06 0.00894582 1.57901e-07 272.06 
-0.87 -0.41 -2.02732 1.20149 0.00909867 0.00872358 -3.92382e-05 0.00892463 1.57336e-07 272.391 
-0.95 -0.39 -0.955445 1.5986 0.00908584 0.00874518 -4.49485e-05 0.00891874 1.57346e-07 272.194 
-0.77 -0.43 -3.52709 0.799622 0.0091312 0.00878031 2.53703e-06 0.00896706 1.58234e-07 272.132 
-0.85 -0.41 -2.60436 1.15408 0.00909451 0.00873417 -3.69893e-05 0.00892973 1.57599e-07 272.092 
-0.93 -0.39 -0.735576 1.78786 0.00909961 0.00873155 -3.7432e-05 0.00892397 1.57511e-07 272.068 
-0.83 -0.41 -2.7951 1.21739 0.00910928 0.0087322 -3.29117e-05 0.00892748 1.57571e-07 272.072 
-0.91 -0.39 -1.24502 1.75223 0.00910025 0.00874046 -4.59738e-05 0.00893049 1.57517e-07 272.256 
-0.99 -0.37 0.119528 2.06564 0.00908024 0.00878391 -5.85454e-05 0.00894581 1.58025e-07 271.847 
-0.81 -0.41 -2.9633 1.33816 0.00912099 0.00873173 -1.91073e-05 0.00893209 1.57729e-07 271.939 
-0.89 -0.39 -1.56948 1.55744 0.00910839 0.00873527 -4.48109e-05 0.0089352 1.57579e-07 272.293 
-0.97 -0.37 -0.294131 1.93114 0.00908867 0.00875427 -6.07111e-05 0.00893602 1.57686e-07 272.133 
-0.79 -0.41 -3.33634 1.07528 0.00913617 0.00875283 -1.45401e-05 0.00895704 1.58085e-07 272.086 
-0.87 -0.39 -1.90466 1.64248 0.0091191 0.00871741 -4.06475e-05 0.0089317 1.57579e-07 272.186 
-0.95 -0.37 -0.702095 1.70915 0.00910671 0.00874279 -5.26519e-05 0.00893239 1.5771e-07 271.98 
-0.77 -0.41 -3.74973 1.17979 0.00914234 0.00877048 -1.79556e-05 0.00896955 1.58292e-07 272.108 
-0.85 -0.39 -2.23015 1.60675 0.00913048 0.00873903 -4.04921e-05 0.00894396 1.57974e-07 271.878 
-0.93 -0.37 -1.20965 1.96413 0.00911546 0.00873113 -5.21227e-05 0.00893516 1.57668e-07 272.138 
-0.75 -0.41 -3.93653 1.09239 0.00916097 0.00879415 -7.64197e-06 0.00898976 1.5856e-07 272.261 
-0.83 -0.39 -2.61567 1.43922 0.00912589 0.00872205 -4.0989e-05 0.00892978 1.57704e-07 271.911 
-0.91 -0.37 -1.35457 2.03429 0.00913481 0.00874108 -5.61449e-05 0.00894788 1.57718e-07 272.44 
-0.99 -0.35 -0.246092 2.07329 0.00909977 0.00877681 -7.77571e-05 0.00895035 1.58092e-07 271.869 
-0.81 -0.39 -2.85874 1.46077 0.00912702 0.00872531 -3.54397e-05 0.00893554 1.57683e-07 272.124 
-0.89 -0.37 -1.71261 1.9791 0.00913791 0.00873189 -4.69121e-05 0.00894461 1.5785e-07 272.112 
-0.97 -0.35 -0.395304 2.4493 0.00910749 0.00874902 -6.49471e-05 0.00893987 1.5783e-07 272.002 
-0.79 -0.39 -3.22658 1.60876 0.00913918 0.00874381 -2.50364e-05 0.00895525 1.58035e-07 272.117 
-0.87 -0.37 -2.1764 2.07247 0.00913546 0.00871645 -4.87892e-05 0.00893541 1.57582e-07 272.293 
-0.95 -0.35 -0.68402 2.00237 0.00911477 0.0087349 -6.29403e-05 0.00893284 1.57705e-07 272.003 
-0.77 -0.39 -3.73299 1.56244 0.00914952 0.00877623 -1.97029e-05 0.00897924 1.58434e-07 272.159 
-0.85 -0.37 -2.47006 1.88874 0.00913717 0.00873549 -4.73502e-05 0.00894268 1.5785e-07 272.053 
-0.93 -0.35 -1.10071 2.39462 0.00912316 0.00873703 -6.65159e-05 0.00894066 1.57786e-07 272.102 
-0.83 -0.37 -2.82298 1.75955 0.00914328 0.00871622 -3.8212e-05 0.00893344 1.57756e-07 271.933 
-0.91 -0.35 -1.45216 2.42187 0.00911652 0.00873646 -5.33015e-05 0.00893087 1.57572e-07 272.174 
-0.81 -0.37 -3.18508 1.67098 0.00915033 0.00872127 -3.45493e-05 0.00894558 1.5788e-07 272.089 
-0.89 -0.35 -1.77768 2.43852 0.00912125 0.00872452 -5.43027e-05 0.00892984 1.57557e-07 272.168 
-0.79 -0.37 -3.54482 2.09559 0.00915099 0.00873903 -3.41666e-05 0.00896016 1.58274e-07 271.854 
-0.87 -0.35 -2.21424 2.24769 0.00913685 0.00871969 -5.04928e-05 0.00893864 1.57742e-07 272.117 
-0.77 -0.37 -3.84326 2.1123 0.00916216 0.00877528 -2.81884e-05 0.00897727 1.5836e-07 272.226 
-0.85 -0.35 -2.64421 2.40156 0.00914669 0.00872261 -4.87363e-05 0.00893719 1.57882e-07 271.831 
-0.83 -0.35 -3.05492 2.08281 0.00914686 0.0087169 -4.44126e-05 0.00893413 1.57832e-07 271.824 
-0.81 -0.35 -3.44857 2.13442 0.00915214 0.00872328 -4.89759e-05 0.00895101 1.58049e-07 271.963 
-0.79 -0.35 -3.73141 2.31708 0.0091723 0.00873334 -4.29917e-05 0.00896435 1.58348e-07 271.855 
-0.77 -0.35 -3.88675 2.39135 0.0091834 0.0087641 -3.49852e-05 0.00898074 1.58448e-07 272.18 
-0.75 -0.35 -4.18774 2.31019 0.00918664 0.00878064 -2.39504e-05 0.00899527 1.58664e-07 272.249 
-0.75 -0.49 -2.71724 0.154552 0.00908168 0.00880668 2.74485e-05 0.00894671 1.57754e-07 272.341 
-0.75 -0.43 -3.81028 0.73129 0.00914364 0.00879653 6.29051e-07 0.00898087 1.58309e-07 272.423 
-0.75 -0.39 -4.5034 1.44788 0.00915315 0.00878442 -2.28682e-05 0.00898407 1.58527e-07 272.145 
-0.75 -0.37 -4.11488 1.91102 0.00916291 0.00877858 -2.12901e-05 0.00897973 1.5835e-07 272.317 
-0.77 -0.33 -4.00051 2.703 0.00915928 0.00875114 -4.52728e-05 0.0089599 1.58338e-07 271.737 
-0.73 -0.49 -3.01706 0.178137 0.00908583 0.00882092 2.6922e-05 0.00896331 1.58067e-07 272.306 
-0.73 -0.47 -3.31329 0.140881 0.00910991 0.00881221 2.69677e-05 0.00897514 1.58181e-07 272.469 
-0.73 -0.45 -3.89581 0.290613 0.00912233 0.00881017 1.38042e-05 0.00897673 1.58322e-07 272.275 
-0.73 -0.43 -4.33961 0.870752 0.00915707 0.00881154 4.07601e-06 0.00899391 1.58531e-07 272.436 
-0.73 -0.41 -4.31732 1.17646 0.00916638 0.00880708 -6.17968e-06 0.00899812 1.58698e-07 272.276 
-0.73 -0.39 -4.54909 1.49447 0.00916312 0.00879916 -7.15847e-06 0.0089908 1.58589e-07 272.243 
-0.73 -0.37 -4.58124 1.712 0.00916134 0.00878001 -2.21297e-05 0.00898238 1.58463e-07 272.204 
-0.73 -0.35 -4.59674 2.01613 0.00918549 0.00877864 -2.03659e-05 0.00899024 1.58604e-07 272.2 
-0.81 -0.29 -3.36539 3.35237 0.00915405 0.00871453 -6.50993e-05 0.00894098 1.58033e-07 271.687 
-0.89 -0.27 -1.80397 3.89695 0.00912014 0.00869885 -8.8768e-05 0.00892467 1.57554e-07 272.015 
-0.97 -0.25 -0.511682 3.66367 0.00909408 0.00872281 -0.000108685 0.00891767 1.57534e-07 271.835 
-0.83 -0.29 -3.02472 3.52769 0.00914839 0.00872563 -6.92876e-05 0.00894761 1.57874e-07 272.162 
-0.91 -0.27 -1.45865 3.87668 0.00912031 0.00870303 -8.75051e-05 0.00892423 1.57586e-07 271.947 
-0.99 -0.25 -0.209142 3.81173 0.0090916 0.00875469 -0.000115975 0.00893363 1.57845e-07 271.787 
-0.79 -0.29 -3.71505 3.23976 0.00917028 0.00872215 -6.14245e-05 0.00895178 1.58172e-07 271.775 
-0.87 -0.27 -2.35254 4.02358 0.00912428 0.00870754 -7.33963e-05 0.00893505 1.57765e-07 271.968 
-0.95 -0.25 -0.70453 3.82893 0.00910441 0.00872083 -0.000104224 0.00892497 1.57698e-07 271.775 
-0.77 -0.29 -4.02932 3.22378 0.00918615 0.00874455 -5.01091e-05 0.00897371 1.58546e-07 271.799 
-0.85 -0.27 -2.61258 3.76112 0.00913691 0.0087115 -7.3341e-05 0.00893498 1.57766e-07 271.963 
-0.93 -0.25 -1.1843 4.05092 0.00910099 0.00870313 -0.000106678 0.00891512 1.57472e-07 271.865 
-0.75 -0.29 -4.5075 3.2173 0.00918574 0.00876581 -5.50588e-05 0.00899043 1.58699e-07 272.042 
-0.83 -0.27 -3.02799 3.77538 0.00915121 0.00872839 -7.08155e-05 0.00895263 1.58098e-07 271.928 
-0.91 -0.25 -1.60825 4.27099 0.00911468 0.00869575 -9.80912e-05 0.00891724 1.57542e-07 271.81 
-0.99 -0.23 -0.0169472 4.06319 0.00906523 0.00874262 -0.000128409 0.00891836 1.5752e-07 271.881 
-0.81 -0.27 -3.54096 3.74362 0.00916007 0.00871449 -7.98404e-05 0.00895013 1.58089e-07 271.868 
-0.89 -0.25 -2.15521 4.22981 0.00912631 0.00869044 -8.71385e-05 0.00892665 1.57543e-07 272.095 
-0.97 -0.23 -0.323048 3.93977 0.00908257 0.00872942 -0.00011877 0.00892009 1.57665e-07 271.684 
-0.79 -0.27 -4.05249 3.65587 0.00916847 0.00871245 -7.1807e-05 0.00894502 1.58205e-07 271.514 
-0.87 -0.25 -2.26875 4.33415 0.00913988 0.00870318 -8.57976e-05 0.00893979 1.57925e-07 271.836 
-0.95 -0.23 -0.869863 4.2146 0.00909043 0.00870965 -0.000118303 0.00891231 1.57455e-07 271.809 
-0.77 -0.27 -4.31515 3.61752 0.00917228 0.00873805 -6.22136e-05 0.00896901 1.58459e-07 271.805 
-0.85 -0.25 -2.6727 4.13455 0.0091512 0.00871456 -8.86246e-05 0.00894161 1.57843e-07 272.032 
-0.93 -0.23 -1.09575 4.44695 0.00910901 0.00870417 -0.000111228 0.0089187 1.57475e-07 271.969 
-0.83 -0.25 -3.1169 4.15985 0.00915724 0.0087162 -8.59496e-05 0.00893888 1.58146e-07 271.429 
-0.91 -0.23 -1.45492 4.64668 0.00911367 0.0086833 -0.000105267 0.00891981 1.57471e-07 272.011 
-0.99 -0.21 -0.0384108 4.16792 0.009098 0.00873871 -0.000131425 0.00893015 1.57887e-07 271.609 
-0.81 -0.25 -3.2938 4.28769 0.00915837 0.00872507 -7.66913e-05 0.0089502 1.58252e-07 271.591 
-0.89 -0.23 -1.97379 4.78179 0.00912462 0.00868295 -0.0001013 0.0089188 1.57525e-07 271.886 
-0.97 -0.21 -0.181696 4.35595 0.0091015 0.00870951 -0.000128096 0.00891659 1.57655e-07 271.594 
-0.79 -0.25 -3.82848 4.22063 0.00914997 0.00870109 -7.6611e-05 0.00893533 1.58044e-07 271.496 
-0.87 -0.23 -2.44621 4.51969 0.00913837 0.00870537 -0.000100693 0.00893146 1.57794e-07 271.808 
-0.95 -0.21 -0.500867 4.60528 0.00910653 0.00871525 -0.000122848 0.00892336 1.57473e-07 272.115 
-0.77 -0.25 -4.378 3.79904 0.00916156 0.00873576 -8.03237e-05 0.008956 1.58257e-07 271.757 
-0.85 -0.23 -2.77343 4.706 0.00914109 0.00871054 -8.85037e-05 0.0089298 1.57788e-07 271.767 
-0.93 -0.21 -1.20191 4.78004 0.00910836 0.00869366 -0.00012248 0.00891378 1.57584e-07 271.631 
-0.83 -0.23 -3.14528 4.42706 0.00913285 0.00870776 -8.20715e-05 0.00892795 1.57837e-07 271.627 
-0.91 -0.21 -1.47322 4.89778 0.00911694 0.00867943 -0.000113199 0.00891576 1.57562e-07 271.73 
-0.99 -0.19 -0.178805 4.36173 0.00907057 0.00872657 -0.000144678 0.00891284 1.57504e-07 271.74 
-0.81 -0.23 -3.54797 4.45669 0.0091453 0.00871522 -8.43311e-05 0.00894129 1.57977e-07 271.792 
-0.89 -0.21 -1.72924 5.31884 0.00912893 0.00868981 -0.000111351 0.00893225 1.5774e-07 271.925 
-0.97 -0.19 -0.628489 4.74794 0.00908554 0.00870528 -0.000136676 0.00890286 1.57515e-07 271.418 
-0.79 -0.23 -3.66406 4.73095 0.00916463 0.00871116 -8.14968e-05 0.00894844 1.58182e-07 271.657 
-0.87 -0.21 -2.15648 4.99668 0.00912912 0.00868425 -0.000109441 0.00892316 1.57815e-07 271.519 
-0.95 -0.19 -0.91257 4.95896 0.00910451 0.00871574 -0.000130603 0.00891595 1.57549e-07 271.758 
-0.77 -0.23 -4.07662 4.36102 0.00916884 0.00873762 -8.99405e-05 0.0089643 1.58443e-07 271.691 
-0.85 -0.21 -2.7722 5.07931 0.00914173 0.00870116 -9.20286e-05 0.00893366 1.57782e-07 271.896 
-0.93 -0.19 -0.950478 5.26961 0.00911129 0.0086899 -0.000123939 0.00891822 1.57654e-07 271.646 
-0.75 -0.23 -4.51016 3.96056 0.00917514 0.00874855 -8.76413e-05 0.00897338 1.58412e-07 272.019 
-0.83 -0.21 -3.1822 4.74562 0.00916259 0.00871484 -9.13783e-05 0.00894916 1.5798e-07 272.025 
-0.91 -0.19 -1.50021 5.25379 0.00911091 0.00867004 -0.000124381 0.00890413 1.5739e-07 271.672 
-0.81 -0.21 -3.47345 4.79495 0.00915649 0.00871112 -8.24905e-05 0.00894996 1.58275e-07 271.544 
-0.89 -0.19 -1.94653 5.66864 0.00911978 0.00868264 -0.000113062 0.00891597 1.57508e-07 271.829 
-0.79 -0.21 -3.83969 5.03997 0.00914776 0.00871333 -9.45952e-05 0.00894704 1.5818e-07 271.619 
-0.87 -0.19 -2.43186 5.42609 0.00912154 0.00868462 -0.000105243 0.00891744 1.57637e-07 271.651 
-0.77 -0.21 -4.19463 4.8 0.0091617 0.00874068 -9.40664e-05 0.00895993 1.58354e-07 271.709 
-0.85 -0.19 -2.58871 5.46863 0.0091269 0.00868847 -0.000111462 0.00892283 1.5777e-07 271.587 
-0.75 -0.21 -4.66243 4.38697 0.00916553 0.00874006 -9.48485e-05 0.00896703 1.58417e-07 271.816 
-0.83 -0.19 -2.90796 5.18434 0.00912349 0.00870556 -0.000100385 0.00892964 1.57801e-07 271.741 
-0.81 -0.19 -3.33364 5.22237 0.00914704 0.00870265 -9.66207e-05 0.00893547 1.57993e-07 271.588 
-0.79 -0.19 -3.84079 5.20521 0.00916739 0.00873363 -9.32317e-05 0.00896718 1.5841e-07 271.834 
-0.77 -0.19 -4.04773 5.29352 0.00916818 0.00873669 -0.00010343 0.00896546 1.58461e-07 271.694 
-0.99 -0.33 -0.151172 2.46612 0.0090965 0.00877112 -8.20712e-05 0.0089456 1.57922e-07 272.018 
-0.97 -0.33 -0.385443 2.45304 0.00911196 0.00874927 -8.24283e-05 0.00894172 1.57871e-07 271.988 
-0.91 -0.33 -1.5092 2.83178 0.00914842 0.00873368 -6.39644e-05 0.00894311 1.57831e-07 272.099 
-0.99 -0.31 -0.0947635 2.78104 0.00908621 0.0087616 -9.23493e-05 0.00893394 1.57734e-07 271.987 
-0.97 -0.31 -0.316403 2.71171 0.00909577 0.00874569 -8.69522e-05 0.00893197 1.57869e-07 271.695 
-0.87 -0.33 -2.16509 2.73143 0.00914454 0.00872597 -6.12059e-05 0.00894321 1.57889e-07 272.002 
-0.95 -0.31 -0.913726 3.12274 0.00910312 0.00872254 -8.46674e-05 0.00892254 1.57549e-07 271.959 
-0.85 -0.33 -2.31356 2.61899 0.00914165 0.00871134 -5.36331e-05 0.00893808 1.57693e-07 272.183 
-0.93 -0.31 -1.26608 3.10792 0.00912236 0.00872941 -8.60832e-05 0.00893954 1.57852e-07 271.953 
-0.91 -0.31 -1.48036 3.01315 0.00913677 0.00871684 -7.12287e-05 0.00894226 1.5771e-07 272.281 
-0.99 -0.29 -0.169661 3.05887 0.00908163 0.00876328 -0.000100509 0.00893725 1.57807e-07 271.962 
-0.81 -0.33 -3.46318 2.50013 0.00916108 0.00872383 -4.81936e-05 0.00895855 1.5819e-07 271.951 
-0.89 -0.31 -1.74167 3.12354 0.00914301 0.0087142 -5.67029e-05 0.00894107 1.57828e-07 272.042 
-0.97 -0.29 -0.603915 3.11971 0.00908775 0.00873294 -9.72675e-05 0.00892066 1.57533e-07 271.93 
-0.87 -0.31 -2.17745 3.04416 0.00914908 0.00872841 -6.15932e-05 0.00894456 1.57982e-07 271.882 
-0.95 -0.29 -0.726757 3.41989 0.00910229 0.00872133 -9.5504e-05 0.00892498 1.57476e-07 272.16 
-0.85 -0.31 -2.67327 2.86367 0.00914913 0.0087025 -5.78278e-05 0.00893765 1.57825e-07 271.943 
-0.93 -0.29 -1.02912 3.21215 0.00910395 0.00872586 -9.08097e-05 0.00892268 1.57468e-07 272.103 
-0.83 -0.31 -2.81713 3.21113 0.00915244 0.00872335 -5.28526e-05 0.00895336 1.57995e-07 272.128 
-0.91 -0.29 -1.22904 3.53327 0.00909645 0.00869892 -8.12459e-05 0.00890826 1.57334e-07 271.895 
-0.99 -0.27 -0.132897 3.4112 0.00908546 0.00875876 -0.000109921 0.00893941 1.5796e-07 271.764 
-0.81 -0.31 -3.30152 2.98749 0.00915881 0.00871805 -5.78854e-05 0.0089552 1.58092e-07 272.016 
-0.89 -0.29 -1.64756 3.488 0.0091138 0.00870872 -7.6189e-05 0.00892253 1.57565e-07 271.931 
-0.97 -0.27 -0.484365 3.45338 0.00909082 0.00872958 -0.000104882 0.00892584 1.57564e-07 272.033 
-0.79 -0.31 -3.76073 2.78583 0.00916426 0.00872912 -5.02465e-05 0.0089573 1.58251e-07 271.807 
-0.87 -0.29 -2.10824 3.5372 0.00913021 0.00871951 -5.85148e-05 0.00893552 1.57812e-07 271.9 
-0.95 -0.27 -0.712997 3.54843 0.00909537 0.0087178 -0.00010245 0.00891967 1.5743e-07 272.077 
-0.77 -0.31 -4.12023 2.98853 0.00916621 0.00874424 -4.94609e-05 0.00895739 1.58346e-07 271.646 
-0.85 -0.29 -2.70449 3.33788 0.00913988 0.00870508 -6.04608e-05 0.00893269 1.5784e-07 271.766 
-0.93 -0.27 -0.97832 3.56569 0.00910432 0.00871063 -9.14348e-05 0.00891597 1.57263e-07 272.253 
-0.95 -0.33 -0.619333 2.56239 0.00911994 0.00872427 -7.24611e-05 0.0089315 1.57725e-07 271.929 
-0.93 -0.33 -1.06034 2.74444 0.00913213 0.00873183 -6.33442e-05 0.00893797 1.57781e-07 272.029 
-0.89 -0.33 -2.00294 2.73203 0.00914867 0.00871845 -5.49736e-05 0.00893817 1.5776e-07 272.07 
-0.83 -0.33 -2.90209 2.73246 0.00915111 0.00871687 -5.23651e-05 0.00895142 1.57971e-07 272.11 
-0.75 -0.31 -4.32207 2.81125 0.00917489 0.00876191 -4.39397e-05 0.0089845 1.58524e-07 272.162 
-0.75 -0.27 -4.46644 3.6266 0.00919582 0.00876496 -6.41942e-05 0.00899178 1.5877e-07 271.961 
-0.75 -0.25 -4.69263 3.73382 0.00917204 0.0087609 -7.10106e-05 0.00897259 1.58507e-07 271.832 
-0.75 -0.19 -4.43598 4.80145 0.00916702 0.00873797 -9.81737e-05 0.00896581 1.58561e-07 271.533 
-0.79 -0.33 -3.71432 2.40942 0.00915419 0.00873419 -5.10769e-05 0.00895762 1.58255e-07 271.81 
-0.75 -0.33 -4.36793 2.56939 0.00916995 0.0087681 -3.12234e-05 0.00897883 1.58541e-07 271.962 
-0.81 -0.17 -3.59774 5.6894 0.00913022 0.00869381 -0.000109495 0.00892118 1.57741e-07 271.586 
-0.79 -0.17 -3.92988 5.69297 0.00914224 0.0087375 -0.000110526 0.00895398 1.58199e-07 271.795 
-0.75 -0.17 -4.39059 5.4086 0.00916792 0.00873972 -0.000103126 0.00896318 1.58348e-07 271.819 
-0.73 -0.31 -4.83265 2.84889 0.00919417 0.00877789 -4.75693e-05 0.00899708 1.5878e-07 272.105 
-0.73 -0.29 -4.69589 3.19588 0.00918593 0.00877007 -5.37761e-05 0.00899043 1.5879e-07 271.887 
-0.73 -0.27 -5.00438 3.40476 0.00920615 0.00877921 -6.63858e-05 0.00900293 1.58953e-07 271.985 
-0.73 -0.25 -4.66083 3.85698 0.00918014 0.00877195 -6.69499e-05 0.00898439 1.58779e-07 271.722 
-0.73 -0.23 -4.91274 4.08417 0.00918408 0.00877162 -7.45838e-05 0.00898655 1.58757e-07 271.826 
-0.73 -0.21 -4.96798 4.32451 0.00918271 0.00876937 -9.43071e-05 0.00898321 1.58611e-07 271.975 
-0.73 -0.19 -4.87056 4.79575 0.00916626 0.00877395 -0.000100248 0.00897608 1.58608e-07 271.763 
-0.79 -0.05 -3.2482 7.61235 0.00905353 0.00871217 -0.000155367 0.00889742 1.57468e-07 271.333 
-0.87 -0.03 -2.19862 8.31087 0.00900076 0.00862377 -0.000180706 0.00883293 1.56361e-07 271.273 
-0.83 -0.05 -2.68445 8.01607 0.0090323 0.00867246 -0.00015268 0.00887418 1.56973e-07 271.478 
-0.91 -0.03 -1.67942 8.13439 0.00899341 0.00862182 -0.000192054 0.00883025 1.5622e-07 271.436 
-0.81 -0.05 -2.87071 7.67443 0.00904672 0.00869871 -0.000142043 0.00889023 1.57365e-07 271.291 
-0.89 -0.03 -1.8024 8.38393 0.00899269 0.0086234 -0.000180071 0.00882914 1.56269e-07 271.317 
-0.77 -0.05 -3.61832 7.31667 0.00906638 0.00873623 -0.000153403 0.00891976 1.57688e-07 271.635 
-0.85 -0.03 -2.48379 8.2155 0.00900453 0.00864551 -0.000175982 0.00884905 1.5655e-07 271.439 
-0.75 -0.05 -3.87961 7.07407 0.00907406 0.00875524 -0.000163221 0.00892278 1.57724e-07 271.665 
-0.83 -0.03 -2.71561 8.36176 0.0090221 0.00866472 -0.000164459 0.00886449 1.56901e-07 271.305 
-0.81 -0.03 -3.1503 7.89539 0.00903202 0.00869602 -0.000158546 0.00887749 1.57124e-07 271.318 
-0.79 -0.03 -3.17382 8.08587 0.00904703 0.00871722 -0.000155891 0.00889694 1.5749e-07 271.281 
-0.77 -0.03 -3.53114 7.56554 0.00905601 0.00874273 -0.000164591 0.00891072 1.57615e-07 271.486 
-0.95 -0.17 -0.796095 5.09565 0.00907921 0.00869883 -0.000145005 0.00889854 1.57338e-07 271.59 
-0.99 -0.15 -0.161391 4.94777 0.00903176 0.0087062 -0.000177929 0.00888949 1.57214e-07 271.529 
-0.89 -0.17 -2.0262 5.88202 0.00910606 0.00866812 -0.000120973 0.00890365 1.5731e-07 271.795 
-0.97 -0.15 -0.375295 5.49034 0.00905447 0.00870461 -0.000165244 0.00889077 1.5726e-07 271.488 
-0.95 -0.15 -0.946856 5.64019 0.00906498 0.00868038 -0.000155108 0.00888244 1.57096e-07 271.518 
-0.93 -0.15 -1.26794 5.90383 0.00907345 0.00866842 -0.000138837 0.00888611 1.57254e-07 271.357 
-0.83 -0.17 -3.09074 5.60564 0.00912966 0.0087117 -0.000104498 0.00893415 1.57825e-07 271.836 
-0.91 -0.15 -1.4932 6.24802 0.00908894 0.00867315 -0.000134902 0.00889711 1.57289e-07 271.632 
-0.99 -0.13 -0.265209 5.30413 0.00904675 0.00870929 -0.000192834 0.00889011 1.57225e-07 271.528 
-0.89 -0.15 -1.7043 6.22674 0.00908819 0.00865628 -0.000128119 0.00888866 1.57259e-07 271.426 
-0.97 -0.13 -0.548307 5.94171 0.00905419 0.00868218 -0.000175021 0.00888152 1.57154e-07 271.39 
-0.87 -0.15 -2.41365 6.0525 0.00909495 0.00868379 -0.000122639 0.00891072 1.57407e-07 271.844 
-0.95 -0.13 -0.931385 6.00216 0.00906511 0.00866711 -0.00016527 0.0088802 1.57181e-07 271.302 
-0.77 -0.17 -4.1861 5.23509 0.00916027 0.00873291 -0.000107235 0.00896111 1.58359e-07 271.737 
-0.85 -0.15 -2.67714 6.26944 0.00910509 0.00867929 -0.0001129 0.00890723 1.57497e-07 271.581 
-0.93 -0.13 -1.17221 6.10428 0.00907631 0.00866704 -0.000155266 0.00888724 1.57117e-07 271.628 
-0.83 -0.15 -2.97377 5.99804 0.00912209 0.00870364 -0.000119975 0.00892688 1.57786e-07 271.681 
-0.91 -0.13 -1.68899 6.59267 0.00907577 0.0086566 -0.000145043 0.00888867 1.57273e-07 271.401 
-0.99 -0.11 -0.103001 5.63607 0.00904201 0.00869553 -0.000187571 0.00888251 1.56954e-07 271.764 
-0.81 -0.15 -3.29914 6.17521 0.00913195 0.00870806 -0.000117052 0.00893478 1.5781e-07 271.882 
-0.89 -0.13 -1.99213 6.57797 0.00908916 0.00865722 -0.000133905 0.00888987 1.57393e-07 271.231 
-0.97 -0.11 -0.538513 6.23001 0.00903501 0.00866964 -0.000185917 0.0088721 1.56894e-07 271.551 
-0.79 -0.15 -3.80914 5.85579 0.00913478 0.00872755 -0.000120601 0.0089503 1.58121e-07 271.818 
-0.87 -0.13 -2.32302 6.64732 0.00909945 0.00866803 -0.000130226 0.00890361 1.57513e-07 271.444 
-0.95 -0.11 -0.800012 6.31863 0.00904325 0.00866053 -0.00017305 0.00887096 1.57057e-07 271.233 
-0.77 -0.15 -4.11566 5.61228 0.0091385 0.0087338 -0.000114202 0.00895258 1.58328e-07 271.531 
-0.85 -0.13 -2.68355 6.36745 0.00911913 0.00868605 -0.000128637 0.00891414 1.5761e-07 271.598 
-0.93 -0.11 -1.24852 6.57071 0.00905778 0.00865429 -0.000165663 0.00887382 1.57164e-07 271.137 
-0.75 -0.15 -4.49361 5.68625 0.00914271 0.00873672 -0.00011093 0.00895223 1.58354e-07 271.476 
-0.83 -0.13 -3.00755 6.4967 0.00912565 0.00869836 -0.000128315 0.00892641 1.57556e-07 272.064 
-0.91 -0.11 -1.52567 6.93484 0.00906606 0.00864601 -0.000154275 0.00887533 1.57128e-07 271.244 
-0.99 -0.09 -0.093579 5.91687 0.00899778 0.00868429 -0.000203926 0.00885585 1.56674e-07 271.433 
-0.81 -0.13 -3.47875 6.43676 0.00911846 0.0087051 -0.000119119 0.00892727 1.57974e-07 271.371 
-0.89 -0.11 -1.85887 6.95195 0.00908255 0.00865392 -0.000147981 0.00888365 1.57442e-07 270.957 
-0.97 -0.09 -0.401483 6.7143 0.00902063 0.00865925 -0.000190549 0.00886405 1.5688e-07 271.327 
-0.79 -0.13 -3.6294 6.36767 0.00912552 0.00872361 -0.000122869 0.00894175 1.57982e-07 271.797 
-0.87 -0.11 -2.21148 7.03037 0.00909494 0.00866087 -0.000147787 0.00889829 1.57477e-07 271.343 
-0.95 -0.09 -0.86605 6.67202 0.00903484 0.00865864 -0.000181926 0.00887147 1.56953e-07 271.429 
-0.77 -0.13 -4.12612 5.99891 0.0091258 0.00872956 -0.000116046 0.0089413 1.5807e-07 271.632 
-0.85 -0.11 -2.60796 6.76218 0.00909862 0.00868421 -0.000135012 0.00890482 1.57616e-07 271.303 
-0.93 -0.09 -1.1679 6.76646 0.00903912 0.0086416 -0.000179321 0.00886001 1.57053e-07 270.906 
-0.83 -0.11 -3.01495 7.02891 0.00909654 0.00868528 -0.000125933 0.0089082 1.57527e-07 271.56 
-0.91 -0.09 -1.36358 7.32866 0.00904392 0.00863556 -0.000162354 0.00886366 1.56987e-07 271.131 
-0.99 -0.07 -0.289824 6.26107 0.00899927 0.00867533 -0.000208338 0.00885382 1.56544e-07 271.596 
-0.81 -0.11 -3.37929 6.58123 0.00911457 0.00871284 -0.000126442 0.00892696 1.57679e-07 271.869 
-0.89 -0.09 -1.86306 7.26279 0.00905043 0.00865052 -0.000161008 0.00887087 1.57154e-07 271.063 
-0.97 -0.07 -0.435532 6.90533 0.00899054 0.00864779 -0.000206706 0.00884093 1.56475e-07 271.32 
-0.79 -0.11 -3.56801 6.70997 0.00911983 0.00871808 -0.000128014 0.00893699 1.58069e-07 271.502 
-0.87 -0.09 -2.06745 7.38503 0.00906391 0.00865305 -0.000156195 0.00888221 1.57363e-07 271.05 
-0.95 -0.07 -0.634671 7.05833 0.00899411 0.00865206 -0.000192193 0.00884416 1.56449e-07 271.465 
-0.77 -0.11 -4.00581 6.23172 0.00912821 0.00872235 -0.000127656 0.00894032 1.58026e-07 271.678 
-0.85 -0.09 -2.53371 7.20532 0.00907181 0.00866952 -0.000146705 0.00888606 1.57291e-07 271.291 
-0.93 -0.07 -1.07287 7.19522 0.00900231 0.00862787 -0.000181392 0.00884213 1.56655e-07 271.047 
-0.75 -0.11 -4.44952 6.06461 0.00914149 0.00875314 -0.000128136 0.00895465 1.58339e-07 271.575 
-0.83 -0.09 -2.84568 7.23879 0.0090889 0.0086836 -0.000138658 0.00890475 1.57491e-07 271.516 
-0.91 -0.07 -1.53835 7.60709 0.00902115 0.0086286 -0.000177569 0.00884962 1.56671e-07 271.248 
-0.99 -0.05 0.0138653 6.58473 0.00897988 0.00866617 -0.000218607 0.00883782 1.56378e-07 271.394 
-0.81 -0.09 -3.2305 7.06756 0.00909405 0.00871448 -0.000139764 0.00891808 1.57757e-07 271.464 
-0.89 -0.07 -1.8072 7.57174 0.00903558 0.00864883 -0.000175364 0.00886321 1.56931e-07 271.215 
-0.97 -0.05 -0.544555 7.08976 0.00900324 0.00864595 -0.00020881 0.00884631 1.56596e-07 271.276 
-0.79 -0.09 -3.59336 6.86925 0.0090991 0.00871784 -0.000128764 0.0089259 1.57794e-07 271.64 
-0.87 -0.07 -2.26836 7.86312 0.0090362 0.00863831 -0.000159326 0.00885934 1.56806e-07 271.312 
-0.95 -0.05 -0.762548 7.44014 0.00900502 0.00863447 -0.000195608 0.00883922 1.56401e-07 271.396 
-0.77 -0.09 -3.78026 6.79881 0.00909649 0.00872056 -0.000128632 0.00892998 1.57891e-07 271.596 
-0.85 -0.07 -2.54791 7.55199 0.00904443 0.0086586 -0.000153466 0.00887512 1.5694e-07 271.563 
-0.93 -0.05 -1.17049 7.69338 0.0090016 0.00862205 -0.000184335 0.00883541 1.56435e-07 271.22 
-0.75 -0.09 -4.13787 6.43129 0.00909408 0.00875128 -0.000136196 0.00893818 1.57987e-07 271.68 
-0.83 -0.07 -2.88502 7.6523 0.00905092 0.00868581 -0.000146374 0.00888147 1.57139e-07 271.414 
-0.91 -0.05 -1.43223 7.95514 0.00900361 0.00862829 -0.000186856 0.00883861 1.56496e-07 271.213 
-0.99 -0.03 -0.223071 6.91852 0.00895363 0.0086561 -0.000229537 0.00881967 1.56045e-07 271.414 
-0.81 -0.07 -3.22772 7.53703 0.00905218 0.00870202 -0.000148194 0.00889649 1.5734e-07 271.525 
-0.89 -0.05 -1.78016 8.00775 0.00900663 0.00863306 -0.000179092 0.0088444 1.56625e-07 271.168 