ITEM: TIMESTEP
995000
ITEM: NUMBER OF CELLS
5000
ITEM: BOX BOUNDS ss ss pp
-0.5 0.5
-1 1
-0.5 0.5
ITEM: CELLS xc yc f_U[*] f_V[*] f_Tau[1] f_Tau[2] f_Tau[3] f_Press[*] f_Mrho[*] f_Ttra[*] 
-0.49 -0.99 -0.0650475 0.110459 0.00976312 0.00973452 1.18057e-05 0.00975069 1.71598e-07 272.869 
-0.47 -0.99 -0.16807 -0.0356562 0.00974826 0.00971801 7.68794e-06 0.00973773 1.7147e-07 272.709 
-0.45 -0.99 -0.191316 0.0292616 0.00974772 0.00972853 5.61855e-06 0.00974242 1.71403e-07 272.947 
-0.49 -0.97 -0.0337627 0.14248 0.00974653 0.00972402 1.18325e-05 0.0097359 1.71369e-07 272.819 
-0.43 -0.99 -0.222573 -0.0506461 0.00973974 0.00972757 4.22365e-06 0.00973978 1.71367e-07 272.931 
-0.47 -0.97 -0.0648933 0.0709087 0.00974763 0.00972077 1.48951e-05 0.00973833 1.71402e-07 272.834 
-0.41 -0.99 -0.0892676 -0.0758079 0.00973449 0.00972803 8.85799e-07 0.00973387 1.7131e-07 272.855 
-0.45 -0.97 -0.0585201 -0.0267744 0.00974586 0.00973191 6.95425e-06 0.00974344 1.71382e-07 273.01 
-0.49 -0.95 0.0534507 0.083764 0.00973424 0.00970934 2.3697e-06 0.00972821 1.71171e-07 272.918 
-0.39 -0.99 -0.133171 0.108173 0.00973988 0.00972854 -3.73299e-07 0.00973272 1.71116e-07 273.133 
-0.43 -0.97 0.0143784 0.0931238 0.00974953 0.00973053 4.81585e-06 0.00974471 1.7141e-07 273 
-0.47 -0.95 0.128178 0.0851058 0.00975185 0.00972625 2.14409e-06 0.00973763 1.71349e-07 272.9 
-0.37 -0.99 -0.188098 -0.0431294 0.00973963 0.00972873 9.08776e-06 0.00973534 1.71292e-07 272.926 
-0.41 -0.97 -0.189271 -0.170586 0.00974428 0.00973007 3.44418e-06 0.00973914 1.7136e-07 272.924 
-0.45 -0.95 0.195788 -0.142918 0.00975939 0.00973865 7.97452e-06 0.00975359 1.71553e-07 273.021 
-0.49 -0.93 0.00468444 0.0338877 0.00976602 0.00971907 1.17789e-06 0.00974575 1.71418e-07 273.016 
-0.35 -0.99 -0.0545016 -0.126479 0.00972853 0.00970617 8.80335e-06 0.00971619 1.70987e-07 272.875 
-0.39 -0.97 -0.0322371 0.068443 0.00973769 0.00972278 7.26575e-06 0.0097355 1.71374e-07 272.8 
-0.43 -0.95 0.136953 0.0984584 0.00975845 0.00972703 8.52191e-06 0.00974764 1.71547e-07 272.864 
-0.47 -0.93 0.000411454 0.00236448 0.00975949 0.00972143 1.35101e-06 0.00974213 1.71452e-07 272.862 
-0.33 -0.99 -0.0268426 0.0608521 0.00973314 0.00972665 4.81246e-06 0.00972858 1.71236e-07 272.826 
-0.37 -0.97 0.0222755 -0.0669684 0.00973544 0.00972813 6.47815e-06 0.00973824 1.71354e-07 272.909 
-0.41 -0.95 0.0389647 0.0900504 0.00975647 0.0097321 4.94953e-06 0.00974726 1.71554e-07 272.843 
-0.45 -0.93 -0.104046 0.026085 0.00975809 0.00973266 6.28358e-06 0.009747 1.71523e-07 272.884 
-0.49 -0.91 -0.0117312 0.169461 0.00977038 0.00972555 1.17076e-05 0.00974951 1.71397e-07 273.155 
-0.35 -0.97 -0.0426228 -0.0668963 0.00973641 0.00971255 7.59708e-06 0.00972873 1.71156e-07 272.957 
-0.39 -0.95 -0.157679 -0.0630501 0.00975338 0.009723 6.30579e-06 0.00973948 1.71518e-07 272.682 
-0.43 -0.93 -0.138838 0.115838 0.00975902 0.00972888 3.80178e-06 0.00973965 1.71393e-07 272.885 
-0.47 -0.91 -0.260663 0.00770022 0.00976269 0.00972196 4.5076e-06 0.00974054 1.7147e-07 272.788 
-0.33 -0.97 -0.157983 0.0299152 0.00974027 0.00972503 2.94022e-06 0.00973903 1.71417e-07 272.83 
-0.37 -0.95 -0.132153 -0.0593344 0.00975489 0.00972112 1.18028e-05 0.00974439 1.71403e-07 273.002 
-0.41 -0.93 -0.112436 0.0955447 0.00976031 0.00973043 1.25802e-05 0.00973723 1.71336e-07 272.909 
-0.45 -0.91 -0.133164 0.00760364 0.00976363 0.00972465 3.17025e-06 0.00974802 1.71524e-07 272.911 
-0.49 -0.89 -0.0304543 0.125614 0.00976934 0.00972591 7.31493e-06 0.00974847 1.7145e-07 273.043 
-0.35 -0.95 -0.116389 -0.0347714 0.00975712 0.00972148 4.81291e-06 0.00974346 1.7146e-07 272.885 
-0.39 -0.93 -0.00324659 -0.0959401 0.00975488 0.00972363 8.34995e-06 0.00974028 1.7159e-07 272.591 
-0.43 -0.91 -0.201834 0.0522098 0.00975946 0.0097331 9.27003e-06 0.00974256 1.71299e-07 273.117 
-0.47 -0.89 0.0994074 0.136229 0.00976802 0.0097281 9.81976e-06 0.0097485 1.71586e-07 272.827 
-0.37 -0.93 -0.0401906 0.0173812 0.00975813 0.00972135 1.92987e-06 0.00974576 1.71434e-07 272.991 
-0.41 -0.91 -0.0944369 -0.0113852 0.00976765 0.00972307 5.0213e-06 0.00974405 1.7144e-07 272.933 
-0.45 -0.89 -0.145863 0.164906 0.0097615 0.00972016 2.31144e-06 0.00974515 1.7143e-07 272.981 
-0.49 -0.87 -0.0284963 0.112511 0.00975015 0.00971482 -6.47174e-07 0.00973437 1.71341e-07 272.82 
-0.35 -0.93 -0.364976 0.0268565 0.0097571 0.00972368 7.19963e-06 0.00974009 1.71488e-07 272.746 
-0.39 -0.91 -0.14489 -0.0365546 0.00977293 0.00973178 1.30147e-05 0.00975478 1.71725e-07 272.782 
-0.43 -0.89 -0.194842 -0.0402856 0.00976952 0.00973843 2.28677e-06 0.00975465 1.71492e-07 273.148 
-0.47 -0.87 0.0848744 0.194813 0.00975741 0.00972678 7.32834e-06 0.00973879 1.71388e-07 272.87 
-0.37 -0.91 -0.272361 0.191468 0.00975711 0.00972078 1.07301e-05 0.00973952 1.71601e-07 272.551 
-0.41 -0.89 -0.139802 -0.00484227 0.00976218 0.00971616 3.92781e-06 0.00974216 1.71499e-07 272.787 
-0.45 -0.87 -0.0913671 0.170127 0.00976431 0.00972318 7.48156e-06 0.00975115 1.71528e-07 272.992 
-0.49 -0.85 -0.038691 0.153694 0.00975201 0.00971456 8.27355e-08 0.00973223 1.71228e-07 272.94 
-0.35 -0.91 -0.157277 0.139719 0.00975064 0.00972566 5.05097e-06 0.00973949 1.71459e-07 272.776 
-0.39 -0.89 -0.151754 0.135071 0.00975798 0.00971822 1.35491e-05 0.00974585 1.71548e-07 272.813 
-0.43 -0.87 -0.0749817 0.0730534 0.0097495 0.00973777 8.84545e-06 0.00974968 1.71512e-07 272.976 
-0.47 -0.85 -0.209699 0.258122 0.00975373 0.00972082 2.54798e-07 0.00974117 1.71349e-07 272.998 
-0.33 -0.91 -0.205769 -0.129194 0.00974839 0.00971277 1.42943e-05 0.00973359 1.7137e-07 272.752 
-0.37 -0.89 -0.239012 0.0958726 0.00976419 0.00973418 1.83163e-05 0.00975694 1.71672e-07 272.926 
-0.41 -0.87 -0.250029 -0.000776153 0.0097527 0.00971793 6.13128e-06 0.00973743 1.71476e-07 272.691 
-0.45 -0.85 -0.123541 0.176533 0.00975638 0.00972018 6.37477e-06 0.00974401 1.71411e-07 272.979 
-0.35 -0.89 -0.284246 0.176439 0.00976778 0.00972066 9.94282e-06 0.00974191 1.71461e-07 272.84 
-0.39 -0.87 -0.313751 0.128252 0.00976069 0.00971077 5.27326e-06 0.0097387 1.71511e-07 272.671 
-0.43 -0.85 -0.18473 0.0940175 0.0097694 0.00973971 5.76335e-06 0.00975059 1.71663e-07 272.762 
-0.37 -0.87 -0.308452 0.201056 0.00977414 0.00973295 8.13253e-06 0.0097541 1.71646e-07 272.888 
-0.41 -0.85 -0.16731 0.128916 0.00976659 0.0097192 8.25766e-06 0.00974637 1.71628e-07 272.699 
-0.35 -0.87 -0.267373 0.173859 0.00977313 0.00972268 1.20118e-05 0.00974569 1.71523e-07 272.847 
-0.39 -0.85 -0.305061 0.294488 0.00976489 0.00971678 -1.73499e-06 0.00974603 1.71545e-07 272.822 
-0.33 -0.87 -0.402854 -0.00141989 0.00977143 0.00972196 1.2231e-05 0.00974822 1.71517e-07 272.928 
-0.37 -0.85 -0.363513 0.0720367 0.00976318 0.00972083 6.00339e-06 0.00974249 1.71426e-07 272.912 
-0.35 -0.85 -0.25891 0.157104 0.00976357 0.00972072 1.35746e-05 0.00974288 1.71337e-07 273.065 
-0.33 -0.85 -0.409847 0.28351 0.00976343 0.00972125 1.36566e-05 0.00974032 1.71399e-07 272.894 
-0.31 -0.99 0.0339232 -0.0509528 0.0097298 0.00971337 1.3006e-05 0.00972102 1.71224e-07 272.633 
-0.29 -0.99 -0.0651842 0.122125 0.00973452 0.00972067 1.24882e-05 0.0097326 1.71283e-07 272.864 
-0.27 -0.99 -0.13909 -0.0201236 0.00974735 0.00972975 7.18974e-06 0.0097355 1.71205e-07 273.069 
-0.31 -0.97 -0.409739 -0.0541891 0.00974553 0.00971531 4.79494e-06 0.00973262 1.71361e-07 272.74 
-0.29 -0.97 -0.393661 0.220892 0.00975388 0.00972041 8.40957e-06 0.00974435 1.71542e-07 272.779 
-0.33 -0.95 -0.0480793 0.132541 0.00975125 0.00972057 7.39738e-06 0.00973904 1.71353e-07 272.932 
-0.27 -0.97 -0.313334 -0.081031 0.00974659 0.00972385 1.29288e-05 0.00973831 1.71415e-07 272.812 
-0.31 -0.95 -0.149273 0.230737 0.0097485 0.0097156 6.01621e-06 0.00973222 1.71346e-07 272.752 
-0.29 -0.95 -0.164834 0.0261194 0.00974283 0.00970877 7.29301e-06 0.00972625 1.71312e-07 272.639 
-0.33 -0.93 -0.332466 0.0977776 0.00976181 0.00971637 1.75801e-06 0.00973796 1.71353e-07 272.902 
-0.27 -0.95 -0.322717 -0.0241907 0.009746 0.00972935 7.7257e-06 0.00973946 1.71373e-07 272.911 
-0.31 -0.93 -0.0798075 0.109487 0.00976019 0.00971545 1.17852e-05 0.00973836 1.716e-07 272.52 
-0.29 -0.93 -0.204748 0.204246 0.00976056 0.00970995 9.22859e-06 0.00973793 1.71507e-07 272.656 
-0.27 -0.93 -0.182252 0.0617597 0.00976114 0.00972568 8.7975e-06 0.00974441 1.71574e-07 272.731 
-0.31 -0.91 -0.227273 0.154549 0.00975117 0.00971507 6.32926e-06 0.00973781 1.71455e-07 272.735 
-0.29 -0.91 -0.202404 0.0686413 0.00975119 0.0097114 5.58211e-07 0.00973055 1.71361e-07 272.682 
-0.33 -0.89 -0.340385 -0.108491 0.00976328 0.0097204 8.93693e-06 0.00974293 1.71421e-07 272.932 
-0.27 -0.91 -0.052582 0.109116 0.00975666 0.00972288 4.96523e-06 0.0097347 1.71468e-07 272.628 
-0.31 -0.89 -0.25174 0.106052 0.00976743 0.00971716 2.26824e-06 0.00974943 1.71599e-07 272.831 
-0.29 -0.89 -0.184146 0.00143866 0.00976041 0.00971259 7.05758e-06 0.00974155 1.7136e-07 272.991 
-0.27 -0.89 -0.334015 0.26301 0.00975209 0.00971713 8.95026e-06 0.00974218 1.71439e-07 272.883 
-0.31 -0.87 -0.4795 0.0843703 0.00975919 0.00971788 9.01944e-06 0.00973678 1.71412e-07 272.776 
-0.29 -0.87 -0.431522 -0.00451479 0.00975546 0.0097098 9.0086e-06 0.00973777 1.71307e-07 272.97 
-0.27 -0.87 -0.399564 0.276273 0.00975575 0.00971894 1.39886e-05 0.00974183 1.71416e-07 272.91 
-0.31 -0.85 -0.444108 -0.155102 0.00976546 0.00972353 2.03912e-05 0.00974668 1.71514e-07 272.89 
-0.29 -0.85 -0.32011 0.113992 0.00975578 0.00970834 1.41815e-05 0.00974145 1.71389e-07 272.943 
-0.27 -0.85 -0.379415 0.151639 0.00975363 0.00971693 1.10252e-05 0.00973894 1.7119e-07 273.189 
-0.25 -0.99 -0.281205 0.0809743 0.00974757 0.00973608 1.34241e-05 0.00974238 1.71374e-07 272.992 
-0.25 -0.97 -0.200025 0.185419 0.00974712 0.00973359 7.52118e-06 0.00974225 1.71518e-07 272.759 
-0.25 -0.95 -0.426531 0.144689 0.00974482 0.00973633 9.8467e-06 0.00974238 1.71464e-07 272.85 
-0.25 -0.93 -0.113624 0.107835 0.00976123 0.0097376 1.47517e-05 0.00974597 1.71601e-07 272.731 
-0.25 -0.91 -0.209245 0.111655 0.00975997 0.00973105 1.15534e-05 0.00974714 1.71575e-07 272.806 
-0.25 -0.89 -0.361829 0.172523 0.00975067 0.00972358 1.21567e-05 0.00973947 1.71357e-07 272.937 
-0.25 -0.87 -0.417509 0.195011 0.00974866 0.0097162 1.54051e-05 0.0097381 1.71297e-07 272.995 
-0.25 -0.85 -0.268021 0.274285 0.00976346 0.00971964 8.64217e-06 0.00974779 1.71371e-07 273.149 
-0.25 -0.83 -0.502319 0.188388 0.00975905 0.00971367 6.67198e-06 0.00974378 1.71321e-07 273.115 
-0.33 -0.81 -0.0208729 0.135469 0.00976252 0.00971092 1.10093e-05 0.00973809 1.71441e-07 272.765 
-0.31 -0.81 -0.144958 0.120083 0.00977703 0.00972217 1.18011e-05 0.00975388 1.71479e-07 273.148 
-0.29 -0.81 -0.214323 0.130864 0.00977834 0.00972322 1.0278e-05 0.00975559 1.71458e-07 273.228 
-0.27 -0.81 -0.338388 0.349467 0.00977463 0.00972347 1.1838e-05 0.00975719 1.7154e-07 273.143 
-0.31 -0.79 -0.338564 0.185764 0.00975797 0.00971504 7.51546e-06 0.00973832 1.71409e-07 272.823 
-0.29 -0.79 -0.432055 0.369075 0.00976203 0.00972214 8.72329e-06 0.00974126 1.71488e-07 272.779 
-0.33 -0.77 -0.335305 0.333246 0.00977322 0.00972308 1.49257e-05 0.00974812 1.71473e-07 272.996 
-0.27 -0.79 -0.484366 0.240576 0.00976637 0.00971707 1.547e-05 0.00974533 1.71509e-07 272.86 
-0.31 -0.77 -0.262474 0.204155 0.00976725 0.00971145 1.14718e-05 0.00974171 1.71456e-07 272.843 
-0.29 -0.77 -0.26458 0.337466 0.00975946 0.00972089 1.09694e-05 0.00974266 1.71597e-07 272.645 
-0.27 -0.77 -0.324768 0.309543 0.00975665 0.00971154 8.81756e-06 0.00974047 1.71391e-07 272.911 
-0.31 -0.75 -0.182861 0.357387 0.0097618 0.00971629 1.0847e-05 0.00974846 1.7154e-07 272.899 
-0.29 -0.75 -0.493773 0.379143 0.00976188 0.00971982 1.43418e-05 0.00974855 1.71556e-07 272.876 
-0.27 -0.75 -0.499364 0.519066 0.00976356 0.00970988 1.70347e-05 0.00973799 1.71311e-07 272.969 
-0.49 -0.83 -0.101764 0.309056 0.00975425 0.00971667 5.6393e-08 0.00973673 1.71378e-07 272.828 
-0.47 -0.83 -0.16437 0.201366 0.00975561 0.00971862 1.98911e-06 0.00974182 1.71655e-07 272.529 
-0.45 -0.83 -0.172684 0.195731 0.00975518 0.00972346 -1.99499e-06 0.00974106 1.71493e-07 272.766 
-0.49 -0.81 0.00398497 0.395342 0.00976145 0.00972061 -1.09193e-06 0.00974274 1.71479e-07 272.836 
-0.43 -0.83 -0.137179 0.128483 0.00975035 0.00972284 3.15681e-06 0.0097394 1.71497e-07 272.714 
-0.47 -0.81 -0.065876 0.217682 0.00976201 0.00971888 -9.0907e-07 0.00974493 1.71482e-07 272.892 
-0.45 -0.81 -0.0650529 0.154517 0.00976709 0.00972225 1.95882e-06 0.00974397 1.71532e-07 272.786 
-0.49 -0.79 0.00876199 0.480136 0.00975628 0.00972288 1.52034e-06 0.00974004 1.714e-07 272.885 
-0.43 -0.81 -0.138155 0.258239 0.0097671 0.00971756 1.65088e-06 0.00974512 1.71686e-07 272.573 
-0.47 -0.79 0.0344795 0.142128 0.00975336 0.00971821 -8.81772e-06 0.00974111 1.71352e-07 272.992 
-0.41 -0.81 -0.249402 0.209555 0.00976335 0.00972519 1.04478e-05 0.00974842 1.71518e-07 272.933 
-0.45 -0.79 -0.0342466 0.285368 0.00975487 0.0097174 6.21552e-07 0.00973567 1.71421e-07 272.73 
-0.49 -0.77 0.0434874 0.348411 0.00976126 0.0097233 5.40433e-06 0.00974539 1.71423e-07 272.998 
-0.39 -0.81 -0.258169 0.140714 0.00975415 0.00971758 1.61894e-05 0.00974349 1.71572e-07 272.709 
-0.43 -0.79 -0.305352 0.365459 0.00976273 0.00971442 2.98643e-06 0.00973724 1.71516e-07 272.622 
-0.47 -0.77 -0.00140722 0.380321 0.00975598 0.00972569 2.47278e-07 0.0097434 1.71411e-07 272.962 
-0.37 -0.81 -0.0393122 0.144345 0.00975283 0.00971494 9.39379e-06 0.00973394 1.71516e-07 272.53 
-0.41 -0.79 -0.319516 0.271995 0.00976859 0.00972093 7.4501e-06 0.00974722 1.71687e-07 272.631 
-0.45 -0.77 -0.315834 0.509574 0.00975459 0.00971164 -5.52376e-06 0.00973496 1.71395e-07 272.751 
-0.35 -0.81 -0.020001 0.209509 0.00974592 0.00971105 2.9847e-06 0.00973457 1.71338e-07 272.831 
-0.39 -0.79 -0.228175 0.0344092 0.0097732 0.00971703 1.0061e-05 0.00974673 1.71758e-07 272.503 
-0.43 -0.77 -0.240894 0.349801 0.00975267 0.00971468 8.2571e-07 0.00973358 1.71457e-07 272.614 
-0.37 -0.79 -0.256769 0.12009 0.00978014 0.00971704 1.01722e-05 0.00975035 1.71654e-07 272.771 
-0.41 -0.77 -0.304085 0.108033 0.00975423 0.00971046 5.17062e-06 0.0097353 1.71438e-07 272.691 
-0.35 -0.79 -0.157668 0.0988502 0.00977791 0.00971653 1.48834e-05 0.00974907 1.71597e-07 272.824 
-0.39 -0.77 -0.109022 0.0346497 0.00975503 0.00972113 9.51884e-06 0.00974624 1.71644e-07 272.671 
-0.43 -0.75 0.100975 0.154885 0.00976503 0.00971816 -5.5152e-06 0.00974402 1.71496e-07 272.844 
-0.33 -0.79 -0.192788 0.244426 0.00976132 0.00971223 1.91803e-06 0.00973546 1.71427e-07 272.714 
-0.37 -0.77 -0.0659395 0.159938 0.00975936 0.00971344 3.11395e-06 0.00973946 1.71463e-07 272.769 
-0.41 -0.75 0.0956764 0.300004 0.00976668 0.00970105 3.71876e-06 0.00974185 1.7158e-07 272.65 
-0.35 -0.77 -0.345571 0.237532 0.00976945 0.00971592 7.7296e-06 0.00974226 1.71359e-07 273.014 
-0.39 -0.75 -0.194013 0.0607655 0.00977111 0.00972077 3.59223e-06 0.00974865 1.71641e-07 272.743 
-0.49 -0.75 -0.0252713 0.30403 0.00975976 0.00972448 5.88736e-06 0.00974468 1.71411e-07 272.998 
-0.47 -0.75 -0.0654764 0.549789 0.00976021 0.00973495 5.59979e-06 0.00974377 1.71387e-07 273.011 
-0.45 -0.75 -0.00528741 0.599428 0.00975816 0.00970557 -4.55732e-06 0.00972886 1.71372e-07 272.617 
-0.49 -0.73 -0.093264 0.507353 0.00977254 0.00971959 4.54783e-06 0.00974567 1.71376e-07 273.08 
-0.47 -0.73 -0.189051 0.464363 0.00977525 0.00974471 4.3268e-06 0.00975561 1.71524e-07 273.124 
-0.45 -0.73 -0.0989609 0.322305 0.00977246 0.00971572 -7.47426e-06 0.00974054 1.71489e-07 272.757 
-0.49 -0.71 0.0111701 0.63184 0.00977695 0.0097184 9.00913e-07 0.00974487 1.71525e-07 272.821 
-0.43 -0.73 0.0114154 0.288803 0.00975927 0.00970869 7.69598e-07 0.00973668 1.71435e-07 272.736 
-0.47 -0.71 -0.0400091 0.523727 0.00977751 0.00974067 -2.67355e-07 0.00975751 1.71633e-07 273.003 
-0.37 -0.75 -0.224734 0.119283 0.00976125 0.00971448 1.12635e-05 0.00973984 1.7155e-07 272.641 
-0.41 -0.73 -0.0503789 0.297952 0.00975978 0.00969766 -3.02415e-06 0.00973648 1.71557e-07 272.536 
-0.45 -0.71 0.0954693 0.134721 0.00976993 0.00972146 9.44102e-06 0.00974526 1.71473e-07 272.916 
-0.49 -0.69 0.046155 0.549241 0.00977128 0.00971669 -5.94824e-06 0.00974627 1.71539e-07 272.839 
-0.35 -0.75 -0.0713716 0.329887 0.00975433 0.00971051 6.83028e-06 0.00973587 1.71349e-07 272.85 
-0.39 -0.73 -0.0746653 0.178097 0.00976217 0.00970821 9.73615e-06 0.00973923 1.71382e-07 272.89 
-0.43 -0.71 -0.0751327 0.324463 0.00976832 0.00971001 1.39905e-06 0.00974343 1.71613e-07 272.642 
-0.47 -0.69 0.154829 0.444188 0.00977412 0.00972961 5.55453e-06 0.00975245 1.71507e-07 273.062 
-0.37 -0.73 -0.285702 0.182755 0.00976833 0.00972062 8.97535e-06 0.00974739 1.71582e-07 272.802 
-0.41 -0.71 -0.0799196 0.433708 0.00976754 0.00969107 4.83463e-07 0.00973712 1.71692e-07 272.34 
-0.45 -0.69 -0.0246174 0.311332 0.00978123 0.00971976 9.05414e-06 0.00975435 1.71653e-07 272.883 
-0.35 -0.73 -0.512826 0.433238 0.00976718 0.00971441 6.8985e-06 0.00974573 1.7156e-07 272.791 
-0.39 -0.71 -0.162409 0.236497 0.00976946 0.00970971 -1.72278e-06 0.00973974 1.71547e-07 272.643 
-0.43 -0.69 -0.160864 0.473635 0.00978019 0.00971704 8.61539e-06 0.00975616 1.71876e-07 272.58 
-0.33 -0.73 -0.429102 0.11342 0.00976561 0.00970498 1.32599e-05 0.00973943 1.71519e-07 272.679 
-0.37 -0.71 -0.106511 0.264801 0.0097689 0.00971769 1.23275e-05 0.00974716 1.71582e-07 272.795 
-0.41 -0.69 -0.117314 0.291521 0.00977319 0.00970106 1.42232e-06 0.00973839 1.71679e-07 272.395 
-0.35 -0.71 -0.233695 0.544333 0.00976646 0.00970683 6.441e-06 0.00974762 1.71583e-07 272.807 
-0.39 -0.69 -0.0739986 0.385296 0.00976345 0.0096988 4.74451e-06 0.0097337 1.71434e-07 272.654 
-0.37 -0.69 -0.255075 0.316952 0.00976627 0.00971401 7.65136e-06 0.00974527 1.71501e-07 272.872 
-0.35 -0.69 -0.22006 0.576296 0.0097666 0.00970475 1.43216e-05 0.00973719 1.71358e-07 272.873 
-0.35 -0.67 -0.251092 0.494361 0.00977218 0.00971709 9.04658e-06 0.00974504 1.71494e-07 272.876 
-0.33 -0.67 -0.288919 0.525069 0.00975888 0.00970089 6.84432e-06 0.00974257 1.71544e-07 272.726 
-0.33 -0.75 -0.112107 0.224799 0.00975716 0.00971426 1.14999e-05 0.00973712 1.7135e-07 272.883 
-0.31 -0.73 -0.432559 0.473199 0.00976632 0.00972228 1.24644e-05 0.00974852 1.71535e-07 272.908 
-0.29 -0.73 -0.334607 0.553141 0.00977138 0.00970981 1.00966e-05 0.00975023 1.71507e-07 273 
-0.33 -0.71 -0.500344 0.149841 0.00976518 0.00970958 1.29151e-05 0.00974254 1.71475e-07 272.836 
-0.27 -0.73 -0.466726 0.546051 0.00976753 0.00971825 1.80353e-05 0.0097509 1.71459e-07 273.096 
-0.31 -0.71 -0.428598 0.394073 0.00976516 0.00972163 1.1798e-05 0.0097504 1.7158e-07 272.888 
-0.29 -0.71 -0.438451 0.493784 0.00975899 0.00970526 1.62612e-05 0.00974244 1.71329e-07 273.066 
-0.33 -0.69 -0.267253 0.329174 0.00977502 0.00970806 2.96225e-06 0.00974793 1.71697e-07 272.634 
-0.27 -0.71 -0.383362 0.532891 0.00976318 0.00971248 1.05127e-05 0.00974138 1.71252e-07 273.159 
-0.31 -0.69 -0.472143 0.396619 0.00977822 0.0097163 1.27114e-05 0.00975594 1.71657e-07 272.922 
-0.29 -0.69 -0.447694 0.544667 0.00977823 0.00971053 1.6514e-05 0.00975145 1.71517e-07 273.019 
-0.27 -0.69 -0.409041 0.419215 0.00977866 0.00971795 1.07671e-05 0.00975042 1.71353e-07 273.252 
-0.31 -0.67 -0.401076 0.487565 0.00975653 0.00971002 1.0287e-05 0.00973853 1.71459e-07 272.75 
-0.29 -0.67 -0.427743 0.390737 0.00976367 0.00971288 1.34418e-05 0.00974269 1.71347e-07 273.044 
-0.41 -0.83 -0.186973 0.225317 0.00975617 0.00972861 7.79201e-06 0.00974455 1.7156e-07 272.757 
-0.39 -0.83 -0.130737 0.275298 0.00975339 0.00971763 3.97752e-06 0.00973224 1.71431e-07 272.617 
-0.37 -0.83 -0.124226 0.214992 0.00974442 0.00971254 5.62371e-06 0.00972884 1.71205e-07 272.882 
-0.35 -0.83 -0.295167 0.0745218 0.00975242 0.00971717 1.60204e-05 0.00973247 1.71266e-07 272.887 
-0.33 -0.83 -0.153316 0.318648 0.00975101 0.00971839 1.4177e-05 0.00973478 1.71233e-07 273.003 
-0.31 -0.83 -0.102158 -0.302721 0.00974815 0.00971385 1.71598e-05 0.00973928 1.71455e-07 272.776 
-0.29 -0.83 -0.278469 0.19641 0.00975794 0.00972106 1.82781e-05 0.00974863 1.7134e-07 273.221 
-0.27 -0.83 -0.377465 0.284732 0.00975936 0.00972249 5.17422e-06 0.00974893 1.71395e-07 273.142 
-0.27 -0.67 -0.481754 0.549764 0.00976271 0.00971917 1.56788e-05 0.00974299 1.7135e-07 273.047 
-0.25 -0.67 -0.425782 0.48987 0.00977062 0.00972069 1.0005e-05 0.00975349 1.71395e-07 273.27 
-0.25 -0.81 -0.338822 0.269704 0.00976102 0.00971428 8.56665e-06 0.00974437 1.71481e-07 272.878 
-0.25 -0.79 -0.315962 0.191035 0.00977162 0.00972473 1.91593e-05 0.0097486 1.7149e-07 272.981 
-0.35 -0.55 -0.270048 0.750517 0.00978231 0.00971233 7.10358e-06 0.00974585 1.71511e-07 272.871 
-0.39 -0.53 -0.228613 0.919105 0.00978123 0.00969232 3.02034e-06 0.00974175 1.7136e-07 272.996 
-0.37 -0.57 -0.236009 0.755031 0.00977603 0.00970313 1.04512e-05 0.00974603 1.71379e-07 273.086 
-0.41 -0.55 -0.22614 0.863329 0.00976447 0.00970324 6.08222e-06 0.00973909 1.71438e-07 272.799 
-0.45 -0.53 -0.0209164 0.620228 0.0097656 0.00969775 1.08135e-06 0.00973273 1.71323e-07 272.804 
-0.35 -0.57 -0.238727 0.724602 0.00978113 0.00970409 1.89825e-05 0.00974415 1.71452e-07 272.918 
-0.39 -0.55 -0.281384 0.771803 0.00976517 0.00968769 4.27607e-06 0.00973735 1.71339e-07 272.907 
-0.43 -0.53 -0.122492 0.680574 0.00977194 0.00969516 4.50303e-06 0.00973623 1.71469e-07 272.669 
-0.47 -0.51 -0.063657 0.75594 0.00976656 0.00969905 -2.6469e-06 0.00973489 1.71498e-07 272.585 
-0.37 -0.55 -0.313975 0.728356 0.00976692 0.00969004 4.62328e-06 0.00973567 1.71211e-07 273.063 
-0.41 -0.53 -0.189259 0.761797 0.00977806 0.0097038 2.39872e-06 0.00974234 1.71469e-07 272.839 
-0.45 -0.51 -0.251197 0.662958 0.00977047 0.00969415 1.49186e-06 0.00973594 1.71445e-07 272.698 
-0.37 -0.53 -0.235874 0.709215 0.00978135 0.00969111 1.04232e-06 0.00974153 1.71469e-07 272.817 
-0.41 -0.51 -0.258629 0.810894 0.00976902 0.00970076 1.20236e-06 0.00973867 1.71437e-07 272.789 
-0.35 -0.53 -0.336984 0.769194 0.00977413 0.00970359 1.07135e-05 0.00974063 1.71564e-07 272.642 
-0.39 -0.51 -0.331717 0.856164 0.00977276 0.00969271 1.17676e-06 0.00973839 1.71516e-07 272.655 
-0.37 -0.51 -0.384398 0.829005 0.00976932 0.00968469 6.29962e-06 0.00973006 1.7125e-07 272.844 
-0.35 -0.51 -0.442617 0.844625 0.00977008 0.00969928 1.19389e-05 0.00973012 1.7134e-07 272.704 
-0.49 -0.65 -0.0224516 0.524698 0.00977359 0.00971894 6.64395e-06 0.00974804 1.7147e-07 272.998 
-0.47 -0.65 -0.0996859 0.436466 0.00977115 0.00971827 2.2116e-06 0.00975131 1.71555e-07 272.955 
-0.45 -0.65 -0.0446855 0.516952 0.00976755 0.0097249 7.33883e-06 0.00975073 1.71678e-07 272.742 
-0.49 -0.63 -0.0065666 0.50209 0.00976449 0.00972219 7.15925e-07 0.0097531 1.71743e-07 272.706 
-0.43 -0.65 0.073937 0.619581 0.00976009 0.00969897 3.94941e-06 0.00973691 1.71459e-07 272.705 
-0.47 -0.63 -0.0119977 0.526185 0.00976441 0.00970855 5.87858e-07 0.0097439 1.71593e-07 272.686 
-0.41 -0.65 0.0219521 0.495945 0.00976188 0.00970415 1.15594e-05 0.00973856 1.71403e-07 272.838 
-0.45 -0.63 -0.0338967 0.449274 0.0097724 0.00972458 8.28025e-06 0.0097547 1.71661e-07 272.881 
-0.49 -0.61 -0.000936172 0.589575 0.00976397 0.00971313 -7.25474e-06 0.00974631 1.71522e-07 272.867 
-0.39 -0.65 -0.123702 0.384587 0.00976194 0.00971168 7.54021e-06 0.00974389 1.71391e-07 273.008 
-0.43 -0.63 -0.150278 0.580493 0.00977547 0.0097055 1.08401e-05 0.00974083 1.71347e-07 272.993 
-0.47 -0.61 -0.0994266 0.446729 0.00976563 0.00971054 3.47875e-06 0.00974257 1.71456e-07 272.867 
-0.37 -0.65 -0.290662 0.522369 0.00976397 0.00969897 2.1401e-06 0.00973392 1.71235e-07 272.977 
-0.41 -0.63 -0.186219 0.646052 0.00977188 0.00969797 2.20578e-06 0.0097396 1.71438e-07 272.812 
-0.45 -0.61 -0.114491 0.559858 0.00976486 0.00971383 -4.2066e-06 0.00974192 1.7141e-07 272.921 
-0.49 -0.59 -0.0142769 0.502491 0.00977822 0.0097043 -3.57053e-06 0.00974977 1.71667e-07 272.732 
-0.35 -0.65 -0.305217 0.436184 0.00977059 0.00971447 9.05891e-06 0.0097418 1.7145e-07 272.856 
-0.39 -0.63 -0.160213 0.539609 0.00978085 0.00971474 1.06254e-05 0.00974905 1.71533e-07 272.926 
-0.43 -0.61 -0.0820405 0.686207 0.00977887 0.00970637 5.10181e-06 0.00974261 1.71407e-07 272.946 
-0.47 -0.59 0.0536758 0.562522 0.00978586 0.009715 -4.12427e-06 0.00975245 1.71597e-07 272.92 
-0.37 -0.63 -0.257373 0.501849 0.00976687 0.00969895 1.12435e-05 0.00973388 1.71294e-07 272.881 
-0.41 -0.61 -0.208388 0.552568 0.00977998 0.00970788 9.87268e-06 0.00974264 1.71395e-07 272.966 
-0.45 -0.59 -0.0430051 0.469216 0.00978285 0.00971432 7.43825e-07 0.00975231 1.71558e-07 272.977 
-0.49 -0.57 -0.0777305 0.505969 0.00978279 0.00970495 -5.0006e-06 0.00974494 1.71483e-07 272.891 
-0.35 -0.63 -0.40418 0.55112 0.00976071 0.00970229 9.95496e-06 0.00973332 1.71299e-07 272.858 
-0.39 -0.61 -0.110211 0.474918 0.00977714 0.00970155 8.13647e-06 0.00973786 1.71292e-07 272.997 
-0.43 -0.59 -0.0504535 0.796653 0.00977187 0.00969715 4.36614e-06 0.0097432 1.7156e-07 272.719 
-0.47 -0.57 -0.0705851 0.522927 0.00977359 0.00971015 -4.36487e-06 0.00973932 1.71452e-07 272.783 
-0.37 -0.61 -0.161307 0.731058 0.00977552 0.00970395 1.46661e-05 0.0097412 1.71505e-07 272.751 
-0.41 -0.59 0.0252249 0.523359 0.00977885 0.009706 2.61522e-06 0.00973992 1.7141e-07 272.867 
-0.45 -0.57 -0.10216 0.629875 0.00977396 0.0097061 3.00984e-06 0.00974085 1.71385e-07 272.932 
-0.49 -0.55 -0.0340443 0.61889 0.0097571 0.00970209 -8.86021e-06 0.00973382 1.71357e-07 272.779 
-0.35 -0.61 -0.151922 0.540224 0.00976847 0.00969958 1.09174e-05 0.00973338 1.71325e-07 272.818 
-0.39 -0.59 -0.0701704 0.544691 0.00977476 0.00968742 1.15139e-05 0.00973617 1.71352e-07 272.854 
-0.43 -0.57 0.0480372 0.611531 0.00977579 0.00969826 4.8154e-06 0.00973984 1.71366e-07 272.934 
-0.47 -0.55 -0.153661 0.679834 0.00976979 0.00970113 1.35263e-06 0.00974163 1.71578e-07 272.647 
-0.33 -0.61 -0.393254 0.611131 0.00976589 0.00969786 1.73243e-05 0.00973521 1.71263e-07 272.969 
-0.37 -0.59 -0.149563 0.677363 0.00978147 0.00971322 1.99521e-05 0.00974993 1.71582e-07 272.872 
-0.41 -0.57 -0.0983779 0.637398 0.00976637 0.0097017 1.4171e-05 0.00973676 1.71271e-07 272.999 
-0.45 -0.55 -0.206038 0.520359 0.00976324 0.00970166 4.46949e-06 0.0097288 1.71247e-07 272.815 
-0.49 -0.53 0.0244857 0.690511 0.00976799 0.00969691 -2.06938e-06 0.00973933 1.71398e-07 272.868 
-0.35 -0.59 -0.309084 0.69468 0.00977512 0.00969644 1.52942e-05 0.00973444 1.71429e-07 272.683 
-0.39 -0.57 -0.294999 0.75477 0.0097697 0.00968352 5.73174e-06 0.00973604 1.71285e-07 272.957 
-0.43 -0.55 -0.244689 0.539012 0.0097618 0.00969248 9.18399e-06 0.0097317 1.71335e-07 272.755 
-0.47 -0.53 -0.0225553 0.616557 0.00975966 0.00969715 -8.79428e-07 0.00972772 1.71261e-07 272.761 
-0.29 -0.57 -0.562425 0.65716 0.00977654 0.00970876 2.04595e-05 0.00974659 1.71444e-07 272.998 
-0.33 -0.55 -0.428884 0.777339 0.0097847 0.00970714 1.05622e-05 0.00974827 1.71564e-07 272.855 
-0.29 -0.61 -0.311827 0.581484 0.0097661 0.00971669 7.89653e-06 0.00974633 1.71633e-07 272.691 
-0.33 -0.59 -0.304313 0.811033 0.00977483 0.00970384 1.3056e-05 0.00974068 1.71307e-07 273.052 
-0.27 -0.61 -0.37476 0.529554 0.00977868 0.0097081 1.46571e-05 0.00974687 1.71606e-07 272.748 
-0.31 -0.59 -0.466616 0.624421 0.00977428 0.00970833 1.0129e-05 0.00974188 1.71439e-07 272.875 
-0.29 -0.59 -0.346004 0.446552 0.00977734 0.00971947 1.35473e-05 0.00974605 1.71519e-07 272.865 
-0.33 -0.57 -0.349398 0.734088 0.00978161 0.00971126 8.35937e-06 0.0097475 1.71455e-07 273.007 
-0.27 -0.59 -0.419748 0.62414 0.00976408 0.00969808 1.22552e-05 0.00973426 1.71343e-07 272.814 
-0.31 -0.57 -0.342403 0.655662 0.00978174 0.00970424 7.49428e-06 0.0097451 1.71519e-07 272.838 
-0.27 -0.57 -0.651126 0.659676 0.00977078 0.00970502 2.65243e-05 0.00974964 1.71575e-07 272.875 
-0.31 -0.55 -0.355759 0.869746 0.00977434 0.009704 1.85543e-05 0.00974468 1.71446e-07 272.942 
-0.29 -0.55 -0.488633 0.673319 0.00976493 0.0096936 2.2135e-05 0.00973237 1.71309e-07 272.816 
-0.33 -0.53 -0.310347 0.982981 0.00977146 0.00969818 1.25787e-05 0.00973572 1.7127e-07 272.971 
-0.27 -0.55 -0.409732 0.593818 0.00977009 0.00971119 1.86603e-05 0.00973976 1.71394e-07 272.887 
-0.31 -0.53 -0.375234 0.688029 0.00977118 0.00970193 2.34452e-05 0.00974291 1.71458e-07 272.873 
-0.29 -0.53 -0.326375 0.673414 0.00978454 0.00969955 1.67822e-05 0.00974834 1.71488e-07 272.978 
-0.33 -0.51 -0.292567 0.784235 0.00976615 0.00969124 1.82531e-05 0.00973293 1.71173e-07 273.047 
-0.27 -0.53 -0.515609 0.826535 0.0097786 0.00971137 2.29742e-05 0.0097433 1.71424e-07 272.939 
-0.31 -0.51 -0.297316 0.812937 0.00976536 0.00970248 1.53577e-05 0.00973205 1.71304e-07 272.815 
-0.29 -0.51 -0.466439 0.812609 0.00975613 0.00969824 2.17589e-05 0.00973604 1.71384e-07 272.799 
-0.27 -0.51 -0.534136 1.07896 0.0097573 0.00970188 2.84249e-05 0.0097348 1.71287e-07 272.919 
-0.33 -0.65 -0.324705 0.458036 0.00977401 0.00970351 1.64182e-05 0.00973986 1.7135e-07 272.96 
-0.31 -0.65 -0.22371 0.634293 0.00976964 0.00971111 1.27553e-05 0.00974294 1.71419e-07 272.936 
-0.29 -0.65 -0.484123 0.49816 0.00976025 0.00970458 9.37185e-06 0.00973299 1.71164e-07 273.063 
-0.33 -0.63 -0.319154 0.484211 0.00975913 0.00970557 8.26285e-06 0.00973975 1.71466e-07 272.772 
-0.27 -0.65 -0.477477 0.49001 0.00977032 0.00972255 9.88292e-06 0.00974801 1.71477e-07 272.986 
-0.31 -0.63 -0.473911 0.708525 0.00976008 0.0097043 1.60025e-05 0.00973646 1.71304e-07 272.937 
-0.25 -0.65 -0.53261 0.403105 0.00976573 0.00971697 1.25712e-05 0.0097439 1.71496e-07 272.84 
-0.29 -0.63 -0.449507 0.416437 0.00977029 0.00971922 1.13712e-05 0.0097451 1.71543e-07 272.8 
-0.27 -0.63 -0.454084 0.499899 0.00975643 0.00971282 1.24307e-05 0.00973643 1.71458e-07 272.691 
-0.31 -0.61 -0.408765 0.561178 0.00977099 0.00971222 1.00642e-05 0.00974844 1.71624e-07 272.764 
-0.49 -0.67 0.0134791 0.511287 0.00977019 0.00971535 -5.15151e-06 0.00974229 1.71529e-07 272.743 
-0.47 -0.67 0.0304956 0.401811 0.00976952 0.00972418 1.956e-06 0.00974535 1.71553e-07 272.79 
-0.45 -0.67 0.0631371 0.473053 0.00976773 0.00972062 3.67232e-06 0.00974834 1.71571e-07 272.845 
-0.43 -0.67 -0.130471 0.608095 0.00977432 0.00971086 7.13576e-06 0.0097465 1.71633e-07 272.695 