ITEM: TIMESTEP
869000
ITEM: NUMBER OF CELLS
5000
ITEM: BOX BOUNDS ss ss pp
-1 1
-0.5 0.5
-0.5 0.5
ITEM: CELLS xc yc f_U[*] f_V[*] f_Tau[1] f_Tau[2] f_Tau[3] f_Press[*] f_Mrho[*] f_Ttra[*] 
-0.99 -0.49 -0.172461 0.282677 0.00899031 0.00875916 -3.18611e-05 0.00888277 1.56586e-07 272.413 
-0.97 -0.49 -0.690135 0.0603403 0.00897875 0.00876979 -3.61752e-05 0.008881 1.56599e-07 272.335 
-0.95 -0.49 -0.734022 0.0645912 0.00898817 0.00874886 -3.42378e-05 0.00888277 1.5682e-07 272.005 
-0.93 -0.49 -0.879078 0.116234 0.0090015 0.0087575 -3.22499e-05 0.00889482 1.56982e-07 272.093 
-0.91 -0.49 -1.25822 0.0883437 0.00900875 0.00871971 -2.36092e-05 0.00886625 1.56725e-07 271.665 
-0.99 -0.47 -0.229729 0.571211 0.00902934 0.00877726 -2.26651e-05 0.00891841 1.57244e-07 272.361 
-0.89 -0.49 -1.68722 0.316354 0.0090411 0.00874742 -2.25351e-05 0.00890199 1.57071e-07 272.157 
-0.97 -0.47 -0.241596 0.413556 0.00902385 0.00877016 -3.90147e-05 0.00890944 1.56891e-07 272.699 
-0.87 -0.49 -1.86162 -0.121217 0.00905476 0.00876791 -4.86389e-06 0.00891003 1.57346e-07 271.928 
-0.95 -0.47 -0.631016 0.333204 0.00903193 0.0087598 -3.83262e-05 0.00890669 1.57031e-07 272.371 
-0.85 -0.49 -1.91301 0.217993 0.00905805 0.00876801 -4.57383e-06 0.0089125 1.57164e-07 272.318 
-0.93 -0.47 -1.23192 0.376963 0.00903915 0.00874407 -3.90464e-05 0.0089003 1.56961e-07 272.298 
-0.83 -0.49 -1.95949 -0.200997 0.00906565 0.0087769 -2.38806e-07 0.0089223 1.57381e-07 272.242 
-0.91 -0.47 -1.43862 0.657915 0.00904735 0.00872952 -3.2543e-05 0.00890252 1.57204e-07 271.943 
-0.99 -0.45 -0.147208 0.852807 0.00905615 0.00878043 -2.84594e-05 0.00892972 1.57511e-07 272.244 
-0.81 -0.49 -2.06889 0.309057 0.00905691 0.0087738 6.03935e-06 0.00891595 1.57254e-07 272.267 
-0.89 -0.47 -1.94029 0.592897 0.00903608 0.00873702 -3.75647e-05 0.00889462 1.57048e-07 271.973 
-0.97 -0.45 -0.526897 0.653764 0.00906693 0.00878032 -3.13573e-05 0.00893814 1.57407e-07 272.679 
-0.79 -0.49 -2.52659 0.156854 0.00904724 0.00876674 2.67872e-05 0.008918 1.57389e-07 272.097 
-0.87 -0.47 -2.19388 0.0437371 0.00904828 0.00874739 -2.0039e-05 0.00890869 1.57027e-07 272.439 
-0.95 -0.45 -0.913098 0.900159 0.009054 0.00876549 -4.38806e-05 0.00891672 1.57146e-07 272.479 
-0.77 -0.49 -2.5595 -0.134916 0.00905844 0.00879552 3.49448e-05 0.00893662 1.57482e-07 272.503 
-0.85 -0.47 -2.19525 0.151485 0.00906873 0.00877292 -1.08073e-05 0.00892411 1.57281e-07 272.47 
-0.93 -0.45 -1.22093 0.616456 0.00905442 0.00871968 -4.71427e-05 0.00889609 1.57084e-07 271.954 
-0.83 -0.47 -2.52267 0.152973 0.00906521 0.00876575 -3.52832e-06 0.00892051 1.57254e-07 272.407 
-0.91 -0.45 -1.55118 0.994067 0.00905974 0.00874113 -2.92155e-05 0.00890472 1.57364e-07 271.735 
-0.99 -0.43 -0.287755 1.29389 0.00908148 0.0087802 -3.51753e-05 0.00894321 1.57756e-07 272.232 
-0.81 -0.47 -2.76812 0.445824 0.00907622 0.00876029 1.00517e-05 0.00892697 1.57507e-07 272.166 
-0.89 -0.45 -1.8324 0.750877 0.00906777 0.00872345 -3.63426e-05 0.00889255 1.57006e-07 271.983 
-0.97 -0.43 -0.521148 0.807008 0.00908067 0.00878147 -3.43783e-05 0.00894738 1.57596e-07 272.635 
-0.79 -0.47 -2.8847 0.37237 0.00908987 0.00875555 1.96641e-05 0.00893334 1.57546e-07 272.293 
-0.87 -0.45 -2.08134 0.447161 0.00906968 0.00874307 -3.13594e-05 0.00890711 1.56947e-07 272.53 
-0.95 -0.43 -0.763514 1.08423 0.0090931 0.00877217 -4.24329e-05 0.00893958 1.57737e-07 272.154 
-0.77 -0.47 -3.24318 0.127277 0.00909707 0.00880249 1.48455e-05 0.00895298 1.58004e-07 272.1 
-0.85 -0.45 -2.39117 0.174967 0.00907453 0.00875366 -1.4042e-05 0.00892237 1.57095e-07 272.739 
-0.93 -0.43 -1.16425 1.2728 0.00909149 0.00872847 -4.26941e-05 0.00891754 1.57145e-07 272.505 
-0.75 -0.47 -3.29591 0.180613 0.00909654 0.00880879 1.81771e-05 0.00896137 1.57778e-07 272.745 
-0.83 -0.45 -2.62078 0.515631 0.00909249 0.00876536 -1.69673e-05 0.00893301 1.57514e-07 272.338 
-0.91 -0.43 -1.59636 0.99773 0.00908421 0.00872521 -3.97212e-05 0.0089036 1.5712e-07 272.123 
-0.99 -0.41 -0.212627 1.57322 0.00908981 0.00878247 -4.02585e-05 0.00894919 1.58017e-07 271.964 
-0.81 -0.45 -2.90095 0.745302 0.00909974 0.00873889 -7.82903e-06 0.00893044 1.57473e-07 272.331 
-0.89 -0.43 -1.41951 1.01816 0.00908714 0.00872586 -3.59974e-05 0.00890895 1.57199e-07 272.149 
-0.97 -0.41 -0.53182 1.18497 0.00910663 0.00878852 -4.98289e-05 0.00895188 1.57711e-07 272.573 
-0.79 -0.45 -3.2244 0.769675 0.00910845 0.00875198 1.41177e-05 0.00893889 1.57766e-07 272.083 
-0.87 -0.43 -1.66667 0.661815 0.00909084 0.00873849 -3.73966e-05 0.00891779 1.57255e-07 272.322 
-0.95 -0.41 -0.785647 1.39752 0.00910695 0.00877519 -4.03313e-05 0.00894634 1.57723e-07 272.383 
-0.77 -0.45 -3.50608 0.273193 0.00912838 0.00879708 1.42436e-05 0.00896207 1.58129e-07 272.162 
-0.85 -0.43 -2.08013 0.728983 0.00910208 0.00874778 -3.02238e-05 0.00893483 1.57482e-07 272.45 
-0.93 -0.41 -1.17364 1.75313 0.00909859 0.00871624 -4.25285e-05 0.0089127 1.57284e-07 272.116 
-0.75 -0.45 -3.64963 0.226421 0.00912328 0.00881271 1.27161e-05 0.0089678 1.58504e-07 271.692 
-0.83 -0.43 -2.47414 0.90995 0.00910464 0.00875705 -1.10988e-05 0.00894082 1.57556e-07 272.504 
-0.91 -0.41 -1.31793 1.26566 0.00911014 0.0087272 -3.35539e-05 0.00892608 1.57518e-07 272.12 
-0.99 -0.39 -0.210563 1.98978 0.00908846 0.00878743 -6.11943e-05 0.00895446 1.58172e-07 271.856 
-0.81 -0.43 -3.08262 1.00069 0.00910437 0.00873055 -1.04198e-05 0.00893112 1.57624e-07 272.092 
-0.89 -0.41 -1.65054 1.0681 0.00910554 0.00874 -3.73206e-05 0.00893019 1.57384e-07 272.477 
-0.97 -0.39 -0.664899 1.48887 0.0091037 0.00878271 -5.05134e-05 0.00895002 1.5796e-07 272.086 
-0.79 -0.43 -3.32745 0.850224 0.00912252 0.00874555 -1.03544e-05 0.00894307 1.57824e-07 272.109 
-0.87 -0.41 -2.0401 1.03605 0.00909915 0.00872619 -3.72531e-05 0.00892493 1.57326e-07 272.417 
-0.95 -0.39 -0.963195 1.57361 0.00909951 0.00875988 -3.75304e-05 0.00893062 1.57407e-07 272.451 
-0.77 -0.43 -3.50444 0.676347 0.00914325 0.00879048 1.30903e-06 0.00897441 1.58287e-07 272.265 
-0.85 -0.41 -2.40641 1.00997 0.0091054 0.00874538 -3.51016e-05 0.00894121 1.57741e-07 272.196 
-0.93 -0.39 -0.549381 1.84824 0.00911112 0.00872729 -2.90776e-05 0.00892168 1.57499e-07 272.02 
-0.83 -0.41 -2.72328 1.3335 0.00911863 0.00874141 -2.74113e-05 0.00894286 1.57705e-07 272.308 
-0.91 -0.39 -1.11943 1.77017 0.0091027 0.00872173 -5.12595e-05 0.00891755 1.5737e-07 272.115 
-0.99 -0.37 0.15218 2.19791 0.0091077 0.00880529 -5.7053e-05 0.0089742 1.58593e-07 271.733 
-0.81 -0.41 -2.91849 1.44139 0.00913185 0.00873327 -1.97618e-05 0.00894582 1.57873e-07 272.109 
-0.89 -0.39 -1.6437 1.40216 0.00911281 0.00874093 -4.33754e-05 0.00894652 1.577e-07 272.429 
-0.97 -0.37 -0.187222 2.00791 0.00910439 0.0087618 -5.18828e-05 0.00894944 1.57862e-07 272.237 
-0.79 -0.41 -3.17244 1.1631 0.00914858 0.00875177 -2.26907e-05 0.00895916 1.58171e-07 272.001 
-0.87 -0.39 -1.94604 1.305 0.00912888 0.00872589 -3.92201e-05 0.00893759 1.57604e-07 272.323 
-0.95 -0.37 -0.663935 1.74885 0.00912042 0.00874822 -4.83263e-05 0.00893115 1.5778e-07 271.823 
-0.77 -0.41 -3.92557 1.08441 0.00915 0.00877912 -2.10568e-05 0.00896985 1.5833e-07 272.052 
-0.85 -0.39 -2.39398 1.46878 0.00914383 0.00875202 -4.5333e-05 0.0089553 1.5818e-07 271.868 
-0.93 -0.37 -1.26969 1.98467 0.00912243 0.00873409 -4.13452e-05 0.00894173 1.57799e-07 272.112 
-0.75 -0.41 -4.20441 1.10806 0.00917041 0.00879718 -6.79711e-06 0.00899848 1.58654e-07 272.364 
-0.83 -0.39 -2.64468 1.68561 0.00913888 0.00872774 -3.92536e-05 0.00894739 1.57925e-07 272.067 
-0.91 -0.37 -1.32218 2.22788 0.00913708 0.00873024 -5.43667e-05 0.00894625 1.57765e-07 272.309 
-0.99 -0.35 -0.162194 2.17498 0.00909392 0.00879669 -7.71925e-05 0.00896496 1.58297e-07 271.96 
-0.81 -0.39 -2.83462 1.37097 0.00915041 0.00873379 -2.93248e-05 0.0089535 1.57799e-07 272.471 
-0.89 -0.37 -1.75419 1.99196 0.0091443 0.008733 -5.00193e-05 0.00894932 1.57807e-07 272.329 
-0.97 -0.35 -0.330488 2.5133 0.00910842 0.00874921 -6.42311e-05 0.0089434 1.57948e-07 271.905 
-0.79 -0.39 -3.33049 1.83737 0.00914891 0.00874251 -2.86779e-05 0.00896034 1.58035e-07 272.271 
-0.87 -0.37 -2.37739 1.76663 0.0091539 0.00872825 -5.39823e-05 0.00894818 1.57587e-07 272.675 
-0.95 -0.35 -0.561745 2.02624 0.00911568 0.00873912 -5.27055e-05 0.00893479 1.57786e-07 271.924 
-0.77 -0.39 -3.83743 1.5496 0.00915789 0.00878527 -2.60009e-05 0.00898497 1.58563e-07 272.11 
-0.85 -0.37 -2.71378 1.78207 0.0091492 0.00874499 -4.84006e-05 0.00895323 1.58017e-07 272.087 
-0.93 -0.35 -1.06444 2.56152 0.00913185 0.00873789 -5.87911e-05 0.0089501 1.57881e-07 272.226 
-0.83 -0.37 -2.91694 1.77565 0.00914909 0.00871871 -3.95411e-05 0.00894557 1.57891e-07 272.069 
-0.91 -0.35 -1.57204 2.26095 0.00912671 0.00873512 -5.06469e-05 0.00893324 1.57628e-07 272.149 
-0.81 -0.37 -3.30168 1.63727 0.00916132 0.00872628 -3.33726e-05 0.00895893 1.58028e-07 272.24 
-0.89 -0.35 -1.74085 2.56981 0.0091272 0.00872858 -5.86976e-05 0.00893508 1.57615e-07 272.227 
-0.79 -0.37 -3.70579 2.23472 0.00916881 0.00875378 -3.28138e-05 0.00898271 1.58405e-07 272.312 
-0.87 -0.35 -2.30434 2.08704 0.00913162 0.00873153 -5.09402e-05 0.00894305 1.57803e-07 272.145 
-0.77 -0.37 -3.95617 2.3426 0.00916665 0.00877554 -2.82875e-05 0.00898199 1.58492e-07 272.141 
-0.85 -0.35 -2.56585 2.26157 0.00914688 0.00872574 -5.07663e-05 0.00894334 1.57938e-07 271.922 
-0.83 -0.35 -3.20581 2.12062 0.00916044 0.00872353 -4.44709e-05 0.00894652 1.57987e-07 271.934 
-0.81 -0.35 -3.62346 2.25825 0.00916655 0.00872316 -5.38903e-05 0.00895805 1.58107e-07 272.077 
-0.79 -0.35 -3.76419 2.49191 0.00918653 0.00874251 -3.80236e-05 0.00897353 1.58347e-07 272.135 
-0.77 -0.35 -4.00093 2.59377 0.00919667 0.00877003 -2.93202e-05 0.00899059 1.58375e-07 272.604 
-0.75 -0.35 -4.26062 2.40679 0.00919513 0.00878505 -2.04292e-05 0.00900206 1.58761e-07 272.288 
-0.75 -0.49 -2.69088 0.168807 0.00907805 0.00880586 1.90046e-05 0.00894485 1.57863e-07 272.097 
-0.75 -0.43 -3.96813 0.64942 0.00915893 0.00881417 5.47573e-06 0.00899525 1.58731e-07 272.134 
-0.75 -0.39 -4.80557 1.62864 0.00916003 0.00878595 -2.27805e-05 0.00898998 1.58521e-07 272.334 
-0.75 -0.37 -4.19316 2.04378 0.00916356 0.00878476 -2.47386e-05 0.00898579 1.58258e-07 272.66 
-0.77 -0.33 -4.04799 2.76453 0.00915794 0.0087483 -4.39312e-05 0.00895458 1.58193e-07 271.824 
-0.73 -0.49 -3.01475 0.257624 0.00908216 0.00881168 1.78562e-05 0.00895734 1.58052e-07 272.15 
-0.73 -0.47 -3.19089 0.201396 0.00909536 0.00880357 2.10188e-05 0.00896441 1.58198e-07 272.114 
-0.73 -0.45 -3.76847 0.368122 0.00913177 0.00880092 1.04634e-05 0.00897898 1.58442e-07 272.137 
-0.73 -0.43 -4.70209 0.896062 0.00916286 0.00880562 1.56638e-06 0.00899722 1.58671e-07 272.296 
-0.73 -0.41 -4.68983 1.28975 0.00918174 0.00881479 -3.91933e-07 0.00901158 1.5885e-07 272.423 
-0.73 -0.39 -4.71598 1.44361 0.00917001 0.00880277 -8.42403e-06 0.00900085 1.58658e-07 272.429 
-0.73 -0.37 -4.66558 1.79058 0.00916407 0.00878741 -2.62336e-05 0.00898729 1.5856e-07 272.186 
-0.73 -0.35 -4.45822 2.07424 0.00918715 0.00878989 -1.95864e-05 0.00899597 1.58702e-07 272.205 
-0.81 -0.29 -3.065 3.46889 0.00915137 0.00871228 -6.96938e-05 0.00893773 1.58049e-07 271.559 
-0.89 -0.27 -1.88566 3.74958 0.00911674 0.00869183 -8.03598e-05 0.00891618 1.57425e-07 271.979 
-0.97 -0.25 -0.559555 3.86288 0.00909383 0.00871545 -0.000104286 0.00891174 1.57261e-07 272.127 
-0.83 -0.29 -2.93511 3.40326 0.00913096 0.00872402 -7.30186e-05 0.00894187 1.57643e-07 272.385 
-0.91 -0.27 -1.19342 3.9981 0.00911365 0.00871579 -9.11534e-05 0.00892805 1.57745e-07 271.788 
-0.99 -0.25 -0.132883 3.76846 0.00908863 0.00873432 -0.000107832 0.00892807 1.57653e-07 271.949 
-0.79 -0.29 -3.37647 3.25752 0.00917016 0.00872905 -6.05803e-05 0.00895267 1.58276e-07 271.623 
-0.87 -0.27 -2.41621 3.92583 0.0091249 0.00872234 -7.44583e-05 0.00894025 1.57831e-07 272.011 
-0.95 -0.25 -0.646311 3.95042 0.00910481 0.00873612 -0.000113103 0.00893088 1.57697e-07 271.957 
-0.77 -0.29 -3.88524 3.36826 0.00918569 0.00874088 -4.44106e-05 0.00897304 1.58547e-07 271.777 
-0.85 -0.27 -2.53575 3.77275 0.00913931 0.00872319 -7.36224e-05 0.00893987 1.57888e-07 271.903 
-0.93 -0.25 -0.935246 4.04741 0.00910025 0.00870692 -0.000106387 0.00891416 1.57466e-07 271.847 
-0.75 -0.29 -4.53906 3.20463 0.00918791 0.00877108 -5.14095e-05 0.00899567 1.58774e-07 272.072 
-0.83 -0.27 -2.89518 3.61762 0.00915166 0.00873388 -7.01601e-05 0.00895487 1.58212e-07 271.8 
-0.91 -0.25 -1.35387 4.34962 0.00910977 0.00871263 -9.3269e-05 0.00891895 1.57566e-07 271.821 
-0.99 -0.23 -0.0387397 3.94157 0.00906738 0.00873288 -0.000121124 0.0089176 1.57433e-07 272.009 
-0.81 -0.27 -3.37717 3.79715 0.00914368 0.00871282 -8.36578e-05 0.00893264 1.57854e-07 271.741 
-0.89 -0.25 -1.86591 4.36439 0.00911322 0.00867976 -9.10497e-05 0.0089131 1.57392e-07 271.942 
-0.97 -0.23 -0.138243 4.15007 0.00908914 0.00872828 -0.000123253 0.00892295 1.57616e-07 271.856 
-0.79 -0.27 -3.90565 3.65422 0.00915771 0.00870685 -7.71862e-05 0.00893651 1.58174e-07 271.308 
-0.87 -0.25 -2.35406 4.30571 0.0091407 0.00871451 -8.41654e-05 0.00894748 1.58039e-07 271.873 
-0.95 -0.23 -0.667761 4.20235 0.00910038 0.00871955 -0.000123342 0.00892205 1.57469e-07 272.082 
-0.77 -0.27 -4.11671 3.85349 0.00917418 0.00873966 -6.31474e-05 0.0089677 1.58426e-07 271.821 
-0.85 -0.25 -2.76321 4.03546 0.00915867 0.00873263 -9.4172e-05 0.0089528 1.58042e-07 272.029 
-0.93 -0.23 -1.06842 4.41683 0.00911255 0.00870937 -0.000113474 0.00892321 1.57555e-07 271.969 
-0.83 -0.25 -3.14542 4.05295 0.0091637 0.00871111 -8.38866e-05 0.00893828 1.58182e-07 271.349 
-0.91 -0.23 -1.37199 4.73788 0.00912479 0.00868862 -0.000104038 0.00892235 1.57438e-07 272.145 
-0.99 -0.21 0.0238371 3.94711 0.00910609 0.00873925 -0.000132125 0.0089455 1.58122e-07 271.671 
-0.81 -0.25 -3.46335 4.19285 0.00917232 0.00872879 -7.52775e-05 0.00895819 1.58365e-07 271.638 
-0.89 -0.23 -1.91891 4.92921 0.00914437 0.00868649 -9.66616e-05 0.00893319 1.5781e-07 271.833 
-0.97 -0.21 0.0193868 4.33829 0.00911241 0.00870968 -0.000130483 0.00892921 1.57769e-07 271.783 
-0.79 -0.25 -3.91668 4.25802 0.00915427 0.00869771 -7.96837e-05 0.00893281 1.58078e-07 271.36 
-0.87 -0.23 -2.41896 4.67124 0.00915469 0.00871414 -0.000110782 0.00893964 1.5798e-07 271.736 
-0.95 -0.21 -0.323142 4.69087 0.00911291 0.0087164 -0.000122841 0.00893042 1.57535e-07 272.224 
-0.77 -0.25 -4.41731 3.95942 0.00916037 0.00873071 -8.57151e-05 0.00894678 1.5802e-07 271.885 
-0.85 -0.23 -2.81534 4.67484 0.00914486 0.00872221 -9.0309e-05 0.00894019 1.57888e-07 271.912 
-0.93 -0.21 -1.01822 4.89015 0.00911753 0.00870195 -0.000119958 0.008917 1.57489e-07 271.894 
-0.83 -0.23 -3.19844 4.31815 0.00913631 0.00870577 -8.37443e-05 0.00892784 1.57765e-07 271.748 
-0.91 -0.21 -1.42971 5.06285 0.00912755 0.00868371 -0.000118303 0.00892057 1.57612e-07 271.79 
-0.99 -0.19 -0.128229 4.12891 0.0090852 0.00874063 -0.000141983 0.00893396 1.57901e-07 271.7 
-0.81 -0.23 -3.55935 4.16302 0.00915101 0.00871599 -8.96907e-05 0.00894972 1.58007e-07 271.997 
-0.89 -0.21 -1.66 5.39501 0.00914508 0.00869438 -0.000114355 0.00894516 1.58012e-07 271.849 
-0.97 -0.19 -0.764503 4.68553 0.00909879 0.0087021 -0.000144723 0.00890432 1.57634e-07 271.257 
-0.79 -0.23 -3.61317 4.77417 0.00918034 0.00871079 -8.24976e-05 0.00895281 1.58151e-07 271.843 
-0.87 -0.21 -2.01506 5.0661 0.00914196 0.00869061 -0.000111398 0.00893331 1.58056e-07 271.414 
-0.95 -0.19 -0.874922 5.00081 0.00910749 0.00871828 -0.000124308 0.00891255 1.57488e-07 271.759 
-0.77 -0.23 -3.97357 4.38177 0.00918659 0.00873408 -9.20379e-05 0.0089694 1.58304e-07 272.084 
-0.85 -0.21 -2.78318 5.16393 0.00915421 0.00871048 -8.93694e-05 0.00894599 1.57939e-07 272 
-0.93 -0.19 -0.9685 5.34528 0.00912157 0.00869688 -0.000124736 0.00892485 1.57784e-07 271.625 
-0.75 -0.23 -4.40899 4.01385 0.00918383 0.00876102 -9.27857e-05 0.00898611 1.58638e-07 272.017 
-0.83 -0.21 -3.35019 4.62954 0.00917723 0.00871845 -9.43434e-05 0.00895894 1.58146e-07 272.037 
-0.91 -0.19 -1.38664 5.54589 0.00911816 0.0086758 -0.000125474 0.00890414 1.57381e-07 271.688 
-0.81 -0.21 -3.68338 4.65487 0.00916709 0.00870829 -8.91459e-05 0.008957 1.58255e-07 271.792 
-0.89 -0.19 -1.74758 5.56907 0.00912334 0.00868475 -0.00011989 0.00892087 1.57673e-07 271.694 
-0.79 -0.21 -3.96361 4.97608 0.00916257 0.00871398 -0.000102031 0.00895185 1.5823e-07 271.679 
-0.87 -0.19 -2.21921 5.58121 0.00913254 0.00868888 -0.00010433 0.00892771 1.57707e-07 271.843 
-0.77 -0.21 -4.21791 4.61648 0.00917189 0.00873294 -9.29504e-05 0.00895996 1.58291e-07 271.819 
-0.85 -0.19 -2.42705 5.60269 0.00913293 0.00869604 -0.000112847 0.00892593 1.5805e-07 271.2 
-0.75 -0.21 -4.66492 4.59578 0.00918116 0.00875237 -9.56203e-05 0.00898215 1.58503e-07 272.128 
-0.83 -0.19 -2.77914 5.26725 0.0091295 0.00871577 -0.000103241 0.00893598 1.57875e-07 271.806 
-0.81 -0.19 -3.36879 5.00099 0.00915226 0.00870442 -0.000106221 0.00893469 1.57936e-07 271.662 
-0.79 -0.19 -4.00363 5.19086 0.00916998 0.00872068 -9.03049e-05 0.00896407 1.58415e-07 271.731 
-0.77 -0.19 -4.27859 5.18488 0.00917514 0.00874114 -0.000105468 0.00896764 1.58685e-07 271.377 
-0.99 -0.33 -0.0943283 2.51805 0.00910247 0.00878298 -8.4005e-05 0.00896146 1.58089e-07 272.211 
-0.97 -0.33 -0.373263 2.53927 0.00911222 0.00874565 -7.94752e-05 0.00894467 1.57936e-07 271.965 
-0.91 -0.33 -1.20203 2.77512 0.00914802 0.00874163 -5.65995e-05 0.00894419 1.57866e-07 272.072 
-0.99 -0.31 -0.221334 2.99595 0.00908542 0.00876662 -8.66851e-05 0.00893882 1.57775e-07 272.064 
-0.97 -0.31 -0.424186 2.53768 0.00909421 0.00873857 -7.8119e-05 0.0089295 1.57758e-07 271.81 
-0.87 -0.33 -2.13127 2.66553 0.00915384 0.0087353 -6.55619e-05 0.00895435 1.58112e-07 271.957 
-0.95 -0.31 -1.07366 3.15291 0.00909956 0.00872439 -7.7923e-05 0.00892414 1.57581e-07 271.952 
-0.85 -0.33 -2.45926 2.59407 0.00915226 0.0087229 -6.05587e-05 0.00895491 1.58036e-07 272.104 
-0.93 -0.31 -1.32929 3.20047 0.00911372 0.00873353 -7.80436e-05 0.00893182 1.57738e-07 271.916 
-0.91 -0.31 -1.82622 2.96295 0.00914132 0.00873057 -6.82266e-05 0.0089446 1.57737e-07 272.307 
-0.99 -0.29 -0.0421597 3.15102 0.00905575 0.00875183 -0.00010601 0.00892082 1.57535e-07 271.93 
-0.81 -0.33 -3.42383 2.5376 0.0091645 0.00871973 -4.72974e-05 0.0089585 1.57943e-07 272.374 
-0.89 -0.31 -1.99518 3.31275 0.00915394 0.00872314 -6.25775e-05 0.00895064 1.58016e-07 272.009 
-0.97 -0.29 -0.594291 3.32383 0.0090753 0.00872903 -9.02487e-05 0.00891613 1.57605e-07 271.666 
-0.87 -0.31 -2.05753 3.03949 0.00915837 0.00873511 -6.79032e-05 0.00895579 1.58253e-07 271.758 
-0.95 -0.29 -0.809271 3.49587 0.00908823 0.00871456 -8.99089e-05 0.00891591 1.57298e-07 272.191 
-0.85 -0.31 -2.72695 3.00723 0.00914789 0.00871705 -5.67571e-05 0.0089421 1.57863e-07 272.014 
-0.93 -0.29 -1.29858 3.37075 0.00910303 0.0087427 -9.12377e-05 0.00892981 1.5755e-07 272.179 
-0.83 -0.31 -2.90746 3.1823 0.00914612 0.00872431 -5.11907e-05 0.00895096 1.57773e-07 272.438 
-0.91 -0.29 -1.34323 3.49536 0.00909473 0.00871435 -8.54779e-05 0.00891695 1.57481e-07 271.905 
-0.99 -0.27 -0.122561 3.46681 0.00908105 0.00874364 -0.000112063 0.00893235 1.57828e-07 271.776 
-0.81 -0.31 -3.4481 3.03411 0.00914795 0.00871121 -5.2638e-05 0.00894463 1.57772e-07 272.247 
-0.89 -0.29 -1.61989 3.41882 0.0091088 0.00871662 -7.72456e-05 0.00892608 1.57668e-07 271.862 
-0.97 -0.27 -0.262393 3.66305 0.00907561 0.0087147 -0.000106713 0.00891357 1.5735e-07 272.03 
-0.79 -0.31 -3.76903 2.9653 0.00915305 0.0087427 -5.00578e-05 0.00895525 1.58234e-07 271.774 
-0.87 -0.29 -2.12652 3.39959 0.00911042 0.00872374 -5.25511e-05 0.00892592 1.57801e-07 271.627 
-0.95 -0.27 -0.64946 3.71358 0.00908796 0.00872628 -9.74902e-05 0.00891492 1.57481e-07 271.844 
-0.77 -0.31 -3.93335 3.06 0.00915395 0.00874008 -4.37753e-05 0.00894534 1.58331e-07 271.308 
-0.85 -0.29 -2.60565 3.61826 0.00912138 0.00871385 -5.96997e-05 0.00893487 1.5797e-07 271.61 
-0.93 -0.27 -0.778703 3.66058 0.00909785 0.00872219 -9.71987e-05 0.00892089 1.5736e-07 272.234 
-0.95 -0.33 -0.56868 2.50463 0.00912228 0.00872537 -6.12836e-05 0.00893718 1.57748e-07 272.061 
-0.93 -0.33 -0.969903 2.93865 0.00913322 0.00873386 -5.67282e-05 0.00894188 1.57726e-07 272.242 
-0.89 -0.33 -1.80813 2.81284 0.0091491 0.00872039 -5.68936e-05 0.00893959 1.5777e-07 272.097 
-0.83 -0.33 -2.99118 2.85134 0.00915569 0.00872226 -6.08664e-05 0.00895818 1.58035e-07 272.205 
-0.75 -0.31 -4.31669 2.74132 0.00916955 0.0087713 -4.15969e-05 0.00898504 1.58638e-07 271.983 
-0.75 -0.27 -4.38496 3.86353 0.00920356 0.00877045 -6.26342e-05 0.00899003 1.5868e-07 272.063 
-0.75 -0.25 -4.49026 3.93977 0.00917607 0.00877031 -7.56673e-05 0.00897763 1.58628e-07 271.777 
-0.75 -0.19 -4.56546 4.95591 0.00916737 0.00874098 -9.99075e-05 0.00897245 1.58712e-07 271.476 
-0.79 -0.33 -3.8374 2.72511 0.00915335 0.00874134 -4.46384e-05 0.00895812 1.58132e-07 272.037 
-0.75 -0.33 -4.23707 2.33229 0.00916422 0.00877499 -2.30907e-05 0.00898224 1.58707e-07 271.781 
-0.81 -0.17 -3.58382 5.85789 0.00913209 0.00870011 -0.000109642 0.00892021 1.57674e-07 271.672 
-0.79 -0.17 -4.09897 5.62752 0.00913438 0.00872582 -0.000113868 0.00894805 1.58037e-07 271.895 
-0.75 -0.17 -4.39773 5.3863 0.0091621 0.00874459 -0.000107618 0.00896385 1.58367e-07 271.807 
-0.73 -0.31 -4.9681 2.79201 0.00917988 0.00879319 -4.52559e-05 0.0089946 1.58644e-07 272.262 
-0.73 -0.29 -4.56038 3.07953 0.00919407 0.00879562 -4.9308e-05 0.00900647 1.59186e-07 271.694 
-0.73 -0.27 -5.06939 3.19958 0.00921003 0.00879225 -6.16418e-05 0.00901247 1.59087e-07 272.044 
-0.73 -0.25 -4.54142 3.63163 0.00919296 0.00877898 -6.68392e-05 0.00900074 1.59161e-07 271.565 
-0.73 -0.23 -4.83408 4.0298 0.00918293 0.0087674 -7.26126e-05 0.00898079 1.58697e-07 271.753 
-0.73 -0.21 -5.01357 4.18701 0.00919696 0.00876321 -9.36768e-05 0.00897677 1.58548e-07 271.888 
-0.73 -0.19 -4.79234 4.73377 0.009168 0.00876944 -0.000101283 0.00897841 1.58633e-07 271.792 
-0.79 -0.05 -3.34006 7.63875 0.00904784 0.00870016 -0.000158729 0.00888812 1.57456e-07 271.069 
-0.87 -0.03 -2.39493 8.63679 0.00899056 0.00860877 -0.000182846 0.00881671 1.56169e-07 271.108 
-0.83 -0.05 -2.66802 8.25776 0.00902579 0.00869198 -0.000148123 0.00888684 1.57046e-07 271.738 
-0.91 -0.03 -1.82227 8.09206 0.00899605 0.00863371 -0.000186851 0.00882976 1.56192e-07 271.469 
-0.81 -0.05 -2.89653 7.83352 0.00904008 0.00868913 -0.000137522 0.00888329 1.5745e-07 270.932 
-0.89 -0.03 -1.92884 8.55915 0.00898412 0.00863148 -0.0001764 0.00882661 1.56241e-07 271.287 
-0.77 -0.05 -3.63484 6.96234 0.00906599 0.00874346 -0.000156035 0.00891838 1.57778e-07 271.438 
-0.85 -0.03 -2.5576 8.06266 0.00899746 0.00864512 -0.000175317 0.00884663 1.56595e-07 271.288 
-0.75 -0.05 -3.9128 7.0458 0.00907622 0.00877048 -0.00017091 0.00893665 1.57975e-07 271.654 
-0.83 -0.03 -2.57057 8.49109 0.00902445 0.00867827 -0.000169201 0.00887424 1.57184e-07 271.115 
-0.81 -0.03 -3.09826 8.19219 0.00903506 0.00868613 -0.000157407 0.00888003 1.57423e-07 270.88 
-0.79 -0.03 -3.11957 8.06145 0.00905736 0.00871615 -0.000156904 0.00890028 1.57473e-07 271.411 
-0.77 -0.03 -3.59586 7.25268 0.00905147 0.00874081 -0.000163853 0.00891192 1.57573e-07 271.593 
-0.95 -0.17 -0.958265 5.21103 0.00908287 0.00870684 -0.000151242 0.00890055 1.5749e-07 271.389 
-0.99 -0.15 -0.186225 4.77829 0.0090462 0.00871538 -0.000171539 0.00890119 1.57209e-07 271.895 
-0.89 -0.17 -1.70259 5.78955 0.00912131 0.00867409 -0.000122496 0.00890904 1.572e-07 272.15 
-0.97 -0.15 -0.538243 5.46599 0.00907131 0.00870926 -0.000169037 0.00890515 1.57353e-07 271.766 
-0.95 -0.15 -0.852333 5.57404 0.0090796 0.00869295 -0.000156937 0.00890056 1.57385e-07 271.572 
-0.93 -0.15 -1.20348 5.70252 0.00908102 0.00867133 -0.000141378 0.00890132 1.57389e-07 271.587 
-0.83 -0.17 -2.92515 5.70145 0.0091358 0.00871419 -0.000100911 0.00893995 1.58018e-07 271.681 
-0.91 -0.15 -1.55573 6.29671 0.009088 0.00868038 -0.000147535 0.00889995 1.5743e-07 271.475 
-0.99 -0.13 -0.260252 5.1669 0.00905293 0.00872085 -0.000191508 0.0088994 1.57425e-07 271.467 
-0.89 -0.15 -1.54025 6.02144 0.00909198 0.00865746 -0.000126398 0.00888995 1.57184e-07 271.595 
-0.97 -0.13 -0.537787 5.85792 0.00905988 0.00869201 -0.000162134 0.00888476 1.57087e-07 271.604 
-0.87 -0.15 -2.0274 6.23703 0.00910229 0.0086865 -0.000122868 0.00891858 1.5735e-07 272.183 
-0.95 -0.13 -0.889734 6.11765 0.00906389 0.00867837 -0.000162129 0.00888731 1.57406e-07 271.131 
-0.77 -0.17 -4.26886 5.16595 0.00915158 0.00873524 -0.00010549 0.00895424 1.58436e-07 271.398 
-0.85 -0.15 -2.40844 6.49768 0.00910561 0.00867819 -0.000107568 0.00891345 1.57542e-07 271.694 
-0.93 -0.13 -1.3334 5.92338 0.0090767 0.008673 -0.000158692 0.00889674 1.57163e-07 271.839 
-0.83 -0.15 -2.92672 6.1573 0.00912336 0.00870973 -0.000119887 0.00893524 1.5793e-07 271.689 
-0.91 -0.13 -1.75616 6.62807 0.00908461 0.00867169 -0.000150681 0.00889915 1.57291e-07 271.69 
-0.99 -0.11 -0.167309 5.51712 0.00904222 0.00870047 -0.000179715 0.0088887 1.57129e-07 271.651 
-0.81 -0.15 -3.26597 6.32114 0.00913338 0.00871206 -0.000110034 0.00893889 1.5778e-07 272.059 
-0.89 -0.13 -2.11002 6.09684 0.00909816 0.00864697 -0.0001393 0.00889315 1.57445e-07 271.242 
-0.97 -0.11 -0.609431 6.1528 0.00904096 0.00868238 -0.000180359 0.00887867 1.57025e-07 271.524 
-0.79 -0.15 -3.63799 5.91358 0.00913532 0.00872495 -0.000121196 0.0089449 1.58108e-07 271.677 
-0.87 -0.13 -2.584 6.78463 0.00910571 0.00867038 -0.000126797 0.00891572 1.57671e-07 271.541 
-0.95 -0.11 -0.843534 6.38664 0.00905821 0.00867117 -0.000176126 0.00888005 1.56973e-07 271.657 
-0.77 -0.15 -4.12619 5.48332 0.00914717 0.00873023 -0.000120365 0.0089498 1.58413e-07 271.301 
-0.85 -0.13 -2.87013 6.62297 0.00912738 0.00868583 -0.000129277 0.00892536 1.57766e-07 271.671 
-0.93 -0.11 -1.18061 6.51522 0.00908078 0.00867132 -0.000171637 0.00890027 1.57402e-07 271.533 
-0.75 -0.15 -4.47928 5.7017 0.00914611 0.00874433 -0.000111654 0.00896193 1.58522e-07 271.483 
-0.83 -0.13 -2.99939 6.69293 0.00913483 0.00870146 -0.000124371 0.00893948 1.5774e-07 272.144 
-0.91 -0.11 -1.53677 6.92131 0.00908185 0.00865791 -0.000158067 0.00887874 1.5704e-07 271.501 
-0.99 -0.09 0.00970168 5.83213 0.00899514 0.00868167 -0.000205996 0.00885355 1.56536e-07 271.603 
-0.81 -0.13 -3.38735 6.67513 0.00912134 0.00870649 -0.000112368 0.00892963 1.5791e-07 271.553 
-0.89 -0.11 -1.92414 6.81966 0.00908443 0.00864132 -0.000147288 0.0088773 1.57266e-07 271.066 
-0.97 -0.09 -0.491534 6.75566 0.00902424 0.00868176 -0.000195806 0.00887869 1.57173e-07 271.27 
-0.79 -0.13 -3.43331 6.23451 0.00913324 0.00873597 -0.000122902 0.00894804 1.58059e-07 271.856 
-0.87 -0.11 -2.43254 7.12821 0.00909422 0.00865896 -0.00014696 0.00890007 1.57674e-07 271.058 
-0.95 -0.09 -0.954189 6.61435 0.00904014 0.00867445 -0.000183918 0.00888094 1.57201e-07 271.29 
-0.77 -0.13 -3.85009 5.95462 0.00912637 0.00871584 -0.000121368 0.00893435 1.57934e-07 271.655 
-0.85 -0.11 -2.66655 6.86779 0.00910296 0.00868582 -0.000128098 0.00890517 1.57607e-07 271.33 
-0.93 -0.09 -1.0155 6.78504 0.00903254 0.00864977 -0.000181173 0.00886188 1.56988e-07 271.075 
-0.83 -0.11 -3.07161 7.26029 0.00909034 0.00868557 -0.000127071 0.00890825 1.57475e-07 271.65 
-0.91 -0.09 -1.28709 7.25662 0.00903058 0.00864097 -0.000153671 0.00885897 1.56862e-07 271.205 
-0.99 -0.07 -0.534682 6.31721 0.00899886 0.00867326 -0.000208716 0.00885143 1.56557e-07 271.502 
-0.81 -0.11 -3.35502 6.61368 0.00912585 0.0087131 -0.000129629 0.0089356 1.57811e-07 271.905 
-0.89 -0.09 -2.07017 7.39773 0.00904085 0.00864428 -0.000162567 0.0088579 1.56982e-07 270.964 
-0.97 -0.07 -0.683523 6.92115 0.00898951 0.00866675 -0.000204688 0.00885294 1.56652e-07 271.382 
-0.79 -0.11 -3.50842 6.46435 0.0091301 0.00872418 -0.000121829 0.00894466 1.58247e-07 271.43 
-0.87 -0.09 -2.3578 7.45991 0.00906081 0.00864795 -0.000158201 0.00887476 1.57309e-07 270.915 
-0.95 -0.07 -0.731294 6.77316 0.00899302 0.00867448 -0.000184291 0.00885151 1.56467e-07 271.659 
-0.77 -0.11 -3.93863 6.22062 0.0091334 0.0087196 -0.000126634 0.00894837 1.58097e-07 271.801 
-0.85 -0.09 -2.66291 7.2601 0.00906896 0.00866179 -0.000144306 0.00888095 1.57217e-07 271.262 
-0.93 -0.07 -1.25541 7.34751 0.008995 0.00863018 -0.000180407 0.00883967 1.56474e-07 271.285 
-0.75 -0.11 -4.42817 6.22685 0.00913965 0.00875757 -0.000127007 0.00896574 1.58516e-07 271.608 
-0.83 -0.09 -3.01539 7.17956 0.00909739 0.00870638 -0.000140524 0.00892426 1.57713e-07 271.729 
-0.91 -0.07 -1.66495 7.50356 0.00901761 0.00863336 -0.000179717 0.00885227 1.56563e-07 271.517 
-0.99 -0.05 0.0603883 6.79174 0.00897701 0.00866854 -0.0002161 0.00884305 1.5643e-07 271.463 
-0.81 -0.09 -3.2229 7.19906 0.0090944 0.00871009 -0.000148067 0.00891713 1.57714e-07 271.51 
-0.89 -0.07 -1.81607 7.86916 0.00904035 0.00865541 -0.000177393 0.00886462 1.56995e-07 271.146 
-0.97 -0.05 -0.4789 7.07957 0.00899581 0.00866568 -0.000208502 0.00885369 1.56697e-07 271.327 
-0.79 -0.09 -3.79803 6.79149 0.00910175 0.00871691 -0.000126189 0.00892571 1.57888e-07 271.471 
-0.87 -0.07 -2.19202 7.87834 0.00903694 0.00862815 -0.000158564 0.00885903 1.56899e-07 271.142 
-0.95 -0.05 -0.712199 7.2039 0.00899661 0.00864629 -0.000198194 0.00884465 1.5647e-07 271.443 
-0.77 -0.09 -4.03072 6.73746 0.00909698 0.00872118 -0.000119746 0.0089381 1.57955e-07 271.732 
-0.85 -0.07 -2.55494 7.6001 0.00904633 0.00865506 -0.000152085 0.00887309 1.56918e-07 271.54 
-0.93 -0.05 -1.29583 7.71528 0.00899892 0.0086299 -0.000177352 0.00883646 1.56418e-07 271.283 
-0.75 -0.09 -4.3464 6.47482 0.00908476 0.00875127 -0.000132061 0.00893831 1.58035e-07 271.602 
-0.83 -0.07 -3.03617 7.73148 0.00905074 0.00870045 -0.000146946 0.00889327 1.57116e-07 271.814 
-0.91 -0.05 -1.3822 7.86666 0.0090017 0.00863715 -0.000185876 0.00884319 1.56501e-07 271.345 
-0.99 -0.03 -0.0759165 6.98794 0.00896122 0.00866405 -0.000233597 0.00882685 1.56259e-07 271.263 
-0.81 -0.07 -3.68906 7.69131 0.00904966 0.0087041 -0.000149806 0.00889597 1.57369e-07 271.459 
-0.89 -0.05 -1.67237 8.15915 0.00900697 0.00864365 -0.000184513 0.00884611 1.56797e-07 270.922 
-0.97 -0.03 -0.418808 7.56183 0.0089645 0.00863675 -0.000216894 0.0088236 1.56307e-07 271.08 