ITEM: TIMESTEP
887500
ITEM: NUMBER OF CELLS
5000
ITEM: BOX BOUNDS ss ss pp
-1 1
-0.5 0.5
-0.5 0.5
ITEM: CELLS xc yc f_U[*] f_V[*] f_Tau[1] f_Tau[2] f_Tau[3] f_Press[*] f_Mrho[*] f_Ttra[*] 
-0.99 -0.49 -0.219562 0.348118 0.00899399 0.00876378 -3.44e-05 0.00888593 1.56758e-07 272.209 
-0.97 -0.49 -0.726732 0.0692155 0.00898152 0.00876692 -3.3219e-05 0.00888287 1.5671e-07 272.199 
-0.95 -0.49 -0.786293 0.0986158 0.00898769 0.00874939 -3.05497e-05 0.00888112 1.56789e-07 272.008 
-0.93 -0.49 -1.01155 0.136015 0.00899936 0.00875794 -3.10159e-05 0.00888927 1.56925e-07 272.022 
-0.91 -0.49 -1.33971 0.0373634 0.00900567 0.00872845 -2.36423e-05 0.00886814 1.5669e-07 271.782 
-0.99 -0.47 -0.191881 0.616774 0.00903022 0.00878246 -1.98338e-05 0.00891802 1.57231e-07 272.37 
-0.89 -0.49 -1.63167 0.254893 0.00903107 0.00874374 -2.49303e-05 0.00889586 1.56873e-07 272.315 
-0.97 -0.47 -0.224331 0.448066 0.0090268 0.008766 -3.61259e-05 0.0089091 1.56973e-07 272.545 
-0.87 -0.49 -1.84272 0.00730543 0.00904298 0.00877074 -1.04629e-05 0.0089052 1.5725e-07 271.946 
-0.95 -0.47 -0.597341 0.301455 0.00903881 0.00875669 -3.6952e-05 0.00890729 1.5702e-07 272.408 
-0.85 -0.49 -1.94948 0.181572 0.00904931 0.00876458 -3.17685e-06 0.0089033 1.5694e-07 272.425 
-0.93 -0.47 -0.966249 0.4192 0.00904475 0.00874978 -3.52358e-05 0.00890227 1.56943e-07 272.389 
-0.83 -0.49 -2.01875 -0.124673 0.00905478 0.00877158 5.15528e-06 0.00891423 1.57206e-07 272.299 
-0.91 -0.47 -1.28441 0.595836 0.00904597 0.0087336 -2.93323e-05 0.00890144 1.57151e-07 272.003 
-0.99 -0.45 -0.125617 0.873215 0.00905356 0.00878111 -3.05623e-05 0.00892711 1.57415e-07 272.329 
-0.81 -0.49 -2.16601 0.352745 0.00905303 0.0087678 7.71115e-06 0.00891403 1.57208e-07 272.288 
-0.89 -0.47 -1.82173 0.646985 0.00903582 0.00873646 -3.41682e-05 0.0088902 1.5692e-07 272.06 
-0.97 -0.45 -0.402468 0.64796 0.00906426 0.0087802 -3.27784e-05 0.00893398 1.57349e-07 272.654 
-0.79 -0.49 -2.57159 0.073099 0.00904675 0.00876282 2.21915e-05 0.00891462 1.57271e-07 272.197 
-0.87 -0.47 -2.16385 0.172342 0.00904209 0.00875469 -2.1277e-05 0.00890768 1.56986e-07 272.479 
-0.95 -0.45 -0.831404 0.878857 0.00904862 0.00875853 -4.14779e-05 0.00891045 1.5707e-07 272.418 
-0.77 -0.49 -2.60835 -0.0516913 0.00906084 0.00879758 3.6381e-05 0.00894068 1.57596e-07 272.43 
-0.85 -0.47 -2.27227 0.157926 0.00905301 0.00876058 -1.07643e-05 0.00890876 1.5706e-07 272.384 
-0.93 -0.45 -1.24775 0.624228 0.00905303 0.00873168 -4.39776e-05 0.00889952 1.57101e-07 272.03 
-0.83 -0.47 -2.55203 0.27438 0.00905557 0.00876108 -3.20827e-06 0.00891462 1.57178e-07 272.358 
-0.91 -0.45 -1.4285 0.921861 0.00906137 0.00874597 -3.0559e-05 0.00890657 1.57271e-07 271.952 
-0.99 -0.43 -0.211943 1.21677 0.00908287 0.00878155 -3.35275e-05 0.008946 1.579e-07 272.068 
-0.81 -0.47 -2.74923 0.405959 0.00906329 0.00875817 6.83945e-06 0.00892364 1.57434e-07 272.191 
-0.89 -0.45 -1.68647 0.871813 0.009075 0.00872556 -3.4127e-05 0.00889416 1.57046e-07 271.962 
-0.97 -0.43 -0.445955 0.880848 0.00908521 0.00877874 -3.40604e-05 0.00894624 1.57629e-07 272.543 
-0.79 -0.47 -2.90578 0.337345 0.00908063 0.00875495 1.66012e-05 0.00893022 1.57582e-07 272.137 
-0.87 -0.45 -2.00501 0.719324 0.00907693 0.00874662 -2.58568e-05 0.00891106 1.57042e-07 272.487 
-0.95 -0.43 -0.693995 1.1328 0.00909768 0.0087716 -3.70116e-05 0.00893738 1.57613e-07 272.3 
-0.77 -0.47 -3.2479 0.166463 0.00909137 0.0087943 1.50644e-05 0.00894762 1.57999e-07 271.947 
-0.85 -0.45 -2.38384 0.334683 0.00908293 0.00874601 -1.23257e-05 0.0089233 1.57203e-07 272.58 
-0.93 -0.43 -1.0929 1.20064 0.00909608 0.00873719 -4.14429e-05 0.00892106 1.57305e-07 272.335 
-0.75 -0.47 -3.31323 0.298504 0.00909308 0.00880498 2.24548e-05 0.0089582 1.57756e-07 272.687 
-0.83 -0.45 -2.62114 0.402133 0.00909597 0.00876158 -1.16255e-05 0.00893442 1.57551e-07 272.318 
-0.91 -0.43 -1.63638 1.00031 0.00908478 0.00873463 -4.4621e-05 0.0089075 1.57097e-07 272.282 
-0.99 -0.41 -0.163274 1.52445 0.00908488 0.00878113 -4.38334e-05 0.00894633 1.57906e-07 272.067 
-0.81 -0.45 -2.76791 0.761818 0.00909799 0.00874265 -8.80823e-06 0.00892974 1.57462e-07 272.329 
-0.89 -0.43 -1.53102 1.10163 0.00908253 0.00871955 -3.533e-05 0.00890293 1.57031e-07 272.256 
-0.97 -0.41 -0.501495 1.16583 0.00910332 0.00878521 -4.96396e-05 0.00895096 1.57648e-07 272.654 
-0.79 -0.45 -3.1497 0.673834 0.00910272 0.00875183 5.64536e-06 0.00893424 1.5773e-07 272.002 
-0.87 -0.43 -1.71697 0.874262 0.00908665 0.00874005 -3.34265e-05 0.00891959 1.57281e-07 272.332 
-0.95 -0.41 -0.677761 1.40743 0.00910367 0.00877198 -3.90917e-05 0.00894366 1.57682e-07 272.372 
-0.77 -0.45 -3.40841 0.313875 0.0091164 0.00878605 1.30863e-05 0.00895257 1.5794e-07 272.198 
-0.85 -0.43 -1.99148 0.773007 0.00909513 0.00874248 -2.52753e-05 0.00892617 1.57428e-07 272.279 
-0.93 -0.41 -1.03966 1.73653 0.00909499 0.00872904 -4.03132e-05 0.00891814 1.57355e-07 272.161 
-0.75 -0.45 -3.58213 0.368827 0.00911911 0.0088021 1.37629e-05 0.00896416 1.58381e-07 271.792 
-0.83 -0.43 -2.3376 0.783666 0.00910022 0.00875317 -1.32825e-05 0.00893566 1.57568e-07 272.326 
-0.91 -0.41 -1.21147 1.31672 0.00910366 0.00873305 -3.33402e-05 0.00892577 1.57566e-07 272.027 
-0.99 -0.39 -0.137851 1.88241 0.00909461 0.00878611 -5.87568e-05 0.008954 1.58153e-07 271.875 
-0.81 -0.43 -2.98678 0.986778 0.00910733 0.00873922 -6.46496e-06 0.00893974 1.57658e-07 272.295 
-0.89 -0.41 -1.72504 1.14547 0.00910321 0.00873037 -3.76461e-05 0.00892339 1.57311e-07 272.397 
-0.97 -0.39 -0.646275 1.45754 0.00910044 0.00877471 -4.97764e-05 0.00894644 1.57976e-07 271.95 
-0.79 -0.43 -3.13929 0.882063 0.00911485 0.00874186 -7.07618e-06 0.00893732 1.57706e-07 272.139 
-0.87 -0.41 -2.0614 1.20115 0.00909677 0.00872518 -3.15463e-05 0.00892551 1.57335e-07 272.419 
-0.95 -0.39 -0.916737 1.53577 0.00909783 0.00875432 -3.65306e-05 0.00892858 1.57519e-07 272.194 
-0.77 -0.43 -3.44171 0.658042 0.00913456 0.00878462 1.08548e-06 0.00896853 1.58178e-07 272.273 
-0.85 -0.41 -2.33382 0.999607 0.00909859 0.00874309 -3.20645e-05 0.00893417 1.57633e-07 272.168 
-0.93 -0.39 -0.4627 1.83296 0.009107 0.00874056 -3.15879e-05 0.00892874 1.57596e-07 272.067 
-0.83 -0.41 -2.62999 1.18182 0.00911184 0.00873955 -2.48867e-05 0.00893507 1.57629e-07 272.203 
-0.91 -0.39 -1.02116 1.8897 0.00910086 0.00872622 -4.74736e-05 0.00892329 1.5747e-07 272.118 
-0.99 -0.37 0.0951234 2.11668 0.00909758 0.0087985 -5.68263e-05 0.0089646 1.58482e-07 271.632 
-0.81 -0.41 -2.71984 1.37946 0.00912605 0.00873461 -1.75782e-05 0.00894059 1.57781e-07 272.109 
-0.89 -0.39 -1.54924 1.54357 0.00910983 0.00872883 -4.25509e-05 0.00893776 1.57638e-07 272.269 
-0.97 -0.37 -0.221994 2.04376 0.00910014 0.00875793 -5.21429e-05 0.00894291 1.57844e-07 272.07 
-0.79 -0.41 -3.11126 1.13635 0.00914265 0.00875086 -1.75819e-05 0.00895653 1.58159e-07 271.941 
-0.87 -0.39 -1.88588 1.41709 0.00912861 0.00872314 -3.8288e-05 0.00893452 1.57566e-07 272.294 
-0.95 -0.37 -0.665889 1.70882 0.00911505 0.00874421 -4.83582e-05 0.00893288 1.57796e-07 271.848 
-0.77 -0.41 -3.75122 1.18556 0.0091441 0.00877328 -2.08739e-05 0.00896544 1.58292e-07 271.983 
-0.85 -0.39 -2.3186 1.41075 0.00914521 0.00874963 -4.03609e-05 0.00895516 1.58164e-07 271.892 
-0.93 -0.37 -1.33309 1.92761 0.00912586 0.00874757 -4.32165e-05 0.00894627 1.57818e-07 272.218 
-0.75 -0.41 -4.01875 1.14845 0.00916384 0.00879554 -9.22272e-06 0.00899317 1.58488e-07 272.488 
-0.83 -0.39 -2.64063 1.54253 0.0091429 0.00872942 -3.86168e-05 0.00894705 1.57892e-07 272.113 
-0.91 -0.37 -1.32195 2.18427 0.0091397 0.0087292 -5.13714e-05 0.00894838 1.57766e-07 272.371 
-0.99 -0.35 -0.16506 2.09284 0.00910466 0.00879028 -7.47248e-05 0.00896582 1.5837e-07 271.861 
-0.81 -0.39 -2.89567 1.36783 0.00914851 0.0087322 -2.88301e-05 0.00895013 1.57795e-07 272.375 
-0.89 -0.37 -1.61595 2.08288 0.00913873 0.00872559 -4.65966e-05 0.00894553 1.5773e-07 272.347 
-0.97 -0.35 -0.261446 2.51916 0.00911005 0.0087448 -6.11848e-05 0.00894492 1.58021e-07 271.826 
-0.79 -0.39 -3.31519 1.82567 0.00915096 0.00874088 -2.47234e-05 0.00895983 1.58096e-07 272.151 
-0.87 -0.37 -2.23959 1.89485 0.00914155 0.00872143 -5.33177e-05 0.00894008 1.57572e-07 272.454 
-0.95 -0.35 -0.556299 2.03036 0.00911938 0.0087391 -5.76748e-05 0.00893695 1.57889e-07 271.811 
-0.77 -0.39 -3.81647 1.60451 0.00916145 0.00877965 -2.32849e-05 0.00898539 1.58519e-07 272.198 
-0.85 -0.37 -2.54215 1.72322 0.00914509 0.00874651 -5.02891e-05 0.0089512 1.57992e-07 272.067 
-0.93 -0.35 -1.06678 2.51263 0.00912972 0.00874504 -5.61527e-05 0.00895371 1.57881e-07 272.336 
-0.83 -0.37 -2.88346 1.75574 0.0091468 0.00871778 -3.91365e-05 0.00894188 1.5785e-07 272.029 
-0.91 -0.35 -1.50005 2.31004 0.00912396 0.00873132 -4.68727e-05 0.00893496 1.57571e-07 272.299 
-0.81 -0.37 -3.34314 1.67331 0.00915926 0.00872496 -3.00629e-05 0.0089541 1.57983e-07 272.171 
-0.89 -0.35 -1.85774 2.63897 0.00913085 0.00872432 -5.46177e-05 0.00893534 1.57603e-07 272.255 
-0.79 -0.37 -3.62654 2.1904 0.00916732 0.00875044 -3.05483e-05 0.00897578 1.58403e-07 272.107 
-0.87 -0.35 -2.26452 2.14247 0.00913941 0.00873119 -5.18421e-05 0.00894413 1.57826e-07 272.138 
-0.77 -0.37 -3.8794 2.21584 0.00916673 0.00877584 -2.57584e-05 0.00898213 1.58503e-07 272.127 
-0.85 -0.35 -2.59964 2.1462 0.00914975 0.00872562 -5.30938e-05 0.00893939 1.57805e-07 272.03 
-0.83 -0.35 -3.07757 2.15138 0.00915718 0.00872024 -4.78122e-05 0.00894061 1.57916e-07 271.876 
-0.81 -0.35 -3.47737 2.19314 0.00916232 0.00872267 -5.02575e-05 0.00895367 1.58082e-07 271.988 
-0.79 -0.35 -3.66663 2.35799 0.0091818 0.00873922 -3.65826e-05 0.00897015 1.58359e-07 272.012 
-0.77 -0.35 -3.91011 2.51058 0.0091931 0.00877066 -2.78188e-05 0.00898935 1.58487e-07 272.374 
-0.75 -0.35 -4.17455 2.48026 0.00918906 0.00878248 -1.99508e-05 0.00899624 1.58741e-07 272.147 
-0.75 -0.49 -2.79342 0.157048 0.00908368 0.00880413 2.59765e-05 0.00894608 1.57944e-07 271.995 
-0.75 -0.43 -3.84281 0.777935 0.00914877 0.00880303 3.93438e-07 0.00898602 1.58544e-07 272.175 
-0.75 -0.39 -4.68434 1.57728 0.00915985 0.00878366 -2.21637e-05 0.00898776 1.58455e-07 272.38 
-0.75 -0.37 -4.15798 1.97115 0.0091659 0.00878041 -2.2058e-05 0.00898485 1.58425e-07 272.343 
-0.77 -0.33 -4.02427 2.73116 0.00915412 0.00875009 -4.16351e-05 0.00895312 1.58183e-07 271.797 
-0.73 -0.49 -3.10563 0.199063 0.00908274 0.00881404 2.34199e-05 0.00895753 1.58125e-07 272.031 
-0.73 -0.47 -3.23927 0.112232 0.0090991 0.00880799 2.59137e-05 0.00896782 1.58273e-07 272.088 
-0.73 -0.45 -3.71499 0.2635 0.0091299 0.00880584 1.59747e-05 0.00897589 1.58439e-07 272.047 
-0.73 -0.43 -4.49998 0.921781 0.0091604 0.00880438 4.05639e-06 0.00899503 1.58693e-07 272.192 
-0.73 -0.41 -4.38821 1.23889 0.00916904 0.00880219 -4.90213e-06 0.00899871 1.58616e-07 272.435 
-0.73 -0.39 -4.69178 1.44369 0.00916817 0.00879888 -9.31847e-06 0.00899735 1.58638e-07 272.357 
-0.73 -0.37 -4.66297 1.73693 0.00916636 0.00878182 -2.64186e-05 0.0089858 1.58518e-07 272.213 
-0.73 -0.35 -4.64947 2.11308 0.00918152 0.00878405 -1.75015e-05 0.00899004 1.58641e-07 272.13 
-0.81 -0.29 -3.05142 3.32615 0.00915036 0.00871359 -6.90891e-05 0.00893775 1.58022e-07 271.606 
-0.89 -0.27 -1.91994 3.68235 0.00911451 0.00869195 -8.3965e-05 0.00891977 1.5746e-07 272.028 
-0.97 -0.25 -0.568104 3.91864 0.00909343 0.00871376 -0.000104667 0.00891092 1.57331e-07 271.981 
-0.83 -0.29 -2.92484 3.23048 0.00913513 0.00871871 -6.87956e-05 0.00893803 1.57579e-07 272.379 
-0.91 -0.27 -1.29789 3.92478 0.00911273 0.00871622 -8.53484e-05 0.00893185 1.57773e-07 271.857 
-0.99 -0.25 -0.189231 3.79677 0.00909233 0.0087407 -0.000112795 0.00892941 1.57722e-07 271.87 
-0.79 -0.29 -3.36852 3.31927 0.0091712 0.00872404 -5.9862e-05 0.00895096 1.58107e-07 271.862 
-0.87 -0.27 -2.40626 3.96386 0.00912525 0.00872154 -7.22729e-05 0.00894126 1.57905e-07 271.914 
-0.95 -0.25 -0.70369 3.90136 0.0091034 0.00872645 -0.000112551 0.00892501 1.57654e-07 271.854 
-0.77 -0.29 -3.91446 3.4073 0.00918327 0.00874668 -4.87342e-05 0.008973 1.5856e-07 271.754 
-0.85 -0.27 -2.48058 3.60617 0.00913785 0.00872085 -7.14968e-05 0.0089369 1.578e-07 271.963 
-0.93 -0.25 -0.978343 4.00402 0.00909756 0.00870584 -0.000109802 0.0089159 1.57445e-07 271.936 
-0.75 -0.29 -4.43599 3.19896 0.00918507 0.00876864 -5.26222e-05 0.00899059 1.5876e-07 271.943 
-0.83 -0.27 -2.87014 3.52542 0.00915393 0.00873022 -6.913e-05 0.00895222 1.58166e-07 271.799 
-0.91 -0.25 -1.29885 4.18749 0.00911343 0.00870978 -9.38125e-05 0.00892208 1.57622e-07 271.818 
-0.99 -0.23 0.00993695 3.93548 0.00906308 0.00873125 -0.000127496 0.00891459 1.57418e-07 271.943 
-0.81 -0.27 -3.47918 3.62107 0.00915651 0.00871545 -8.18695e-05 0.00894137 1.58039e-07 271.688 
-0.89 -0.25 -1.77218 4.28175 0.00912137 0.00868965 -8.51606e-05 0.00892436 1.57472e-07 272.147 
-0.97 -0.23 -0.0731186 4.20141 0.00908697 0.0087232 -0.000121087 0.00892171 1.57613e-07 271.823 
-0.79 -0.27 -3.87355 3.67581 0.00916411 0.00870285 -7.40301e-05 0.00893674 1.58073e-07 271.488 
-0.87 -0.25 -2.19464 4.23481 0.00914299 0.00871092 -8.42671e-05 0.00894809 1.58017e-07 271.93 
-0.95 -0.23 -0.603293 4.26109 0.00909532 0.00871329 -0.000120324 0.00891553 1.57436e-07 271.94 
-0.77 -0.27 -4.14457 3.85374 0.00918058 0.00874546 -6.19346e-05 0.00897673 1.58539e-07 271.902 
-0.85 -0.25 -2.60873 3.91707 0.00916082 0.00872712 -8.74597e-05 0.008953 1.58071e-07 271.985 
-0.93 -0.23 -1.09298 4.3079 0.00911154 0.00870969 -0.000114551 0.00892547 1.57576e-07 272.001 
-0.83 -0.25 -3.15321 4.00289 0.00916278 0.0087108 -8.19646e-05 0.00893841 1.5825e-07 271.235 
-0.91 -0.23 -1.34462 4.61296 0.00911681 0.00868601 -0.000106521 0.00892026 1.57454e-07 272.053 
-0.99 -0.21 0.0191948 4.01941 0.0090956 0.00872852 -0.00013374 0.00893212 1.57847e-07 271.737 
-0.81 -0.25 -3.38844 4.0578 0.00916685 0.00872954 -7.35419e-05 0.00895382 1.58346e-07 271.539 
-0.89 -0.23 -1.93281 4.87929 0.00913275 0.00869003 -9.73294e-05 0.00892807 1.57776e-07 271.736 
-0.97 -0.21 -0.0391469 4.34841 0.00910009 0.0087024 -0.000130183 0.00891804 1.57689e-07 271.58 
-0.79 -0.25 -3.86881 4.14936 0.00915431 0.00869745 -8.23571e-05 0.00893424 1.57963e-07 271.601 
-0.87 -0.23 -2.31739 4.5506 0.00914063 0.00871222 -0.000103213 0.00893816 1.5798e-07 271.692 
-0.95 -0.21 -0.314994 4.72142 0.00910841 0.00871845 -0.000127467 0.00892967 1.57535e-07 272.201 
-0.77 -0.25 -4.31097 3.94455 0.00915892 0.00873353 -7.95591e-05 0.00894745 1.58013e-07 271.917 
-0.85 -0.23 -2.79264 4.66636 0.00913934 0.00871795 -9.02613e-05 0.00893694 1.57894e-07 271.802 
-0.93 -0.21 -1.0351 4.85643 0.00911416 0.00869971 -0.000121116 0.00891741 1.57516e-07 271.86 
-0.83 -0.23 -3.14185 4.24289 0.00914022 0.00870691 -7.95017e-05 0.00893153 1.57825e-07 271.757 
-0.91 -0.21 -1.40366 4.96594 0.00912271 0.0086801 -0.000114975 0.0089197 1.57532e-07 271.901 
-0.99 -0.19 -0.134155 4.19481 0.00907918 0.00872224 -0.000144798 0.00892129 1.57686e-07 271.684 
-0.81 -0.23 -3.60579 4.16918 0.00915274 0.00872169 -8.854e-05 0.00895223 1.5812e-07 271.878 
-0.89 -0.21 -1.66149 5.42406 0.00913738 0.0086942 -0.000113232 0.0089386 1.579e-07 271.843 
-0.97 -0.19 -0.658608 4.77064 0.00909189 0.00869898 -0.000147518 0.00890145 1.57643e-07 271.154 
-0.79 -0.23 -3.63317 4.67651 0.00917048 0.00870731 -7.90549e-05 0.00894692 1.58137e-07 271.688 
-0.87 -0.21 -2.11794 4.964 0.00913963 0.00869272 -0.000111221 0.00893187 1.57992e-07 271.48 
-0.95 -0.19 -0.92299 5.09697 0.00910467 0.00871828 -0.000131066 0.00891222 1.57549e-07 271.645 
-0.77 -0.23 -3.98144 4.30953 0.00917588 0.00873244 -8.84694e-05 0.00896305 1.58328e-07 271.85 
-0.85 -0.21 -2.71823 5.03981 0.00915211 0.00870994 -9.03412e-05 0.00894756 1.57979e-07 271.979 
-0.93 -0.19 -0.911716 5.25849 0.00911319 0.00869055 -0.000126012 0.00891861 1.57735e-07 271.519 
-0.75 -0.23 -4.37854 4.02783 0.00917907 0.00875588 -8.77837e-05 0.00897854 1.58593e-07 271.864 
-0.83 -0.21 -3.21054 4.57476 0.00916608 0.00871435 -9.33284e-05 0.00895219 1.57954e-07 272.162 
-0.91 -0.19 -1.37213 5.36581 0.00911676 0.00867311 -0.000126348 0.00890715 1.57397e-07 271.751 
-0.81 -0.21 -3.43193 4.57612 0.00916252 0.00871288 -8.15314e-05 0.00895706 1.5829e-07 271.734 
-0.89 -0.19 -1.80215 5.63544 0.00912705 0.00868769 -0.000116635 0.00892448 1.57631e-07 271.876 
-0.79 -0.21 -3.86654 4.92025 0.00915663 0.00871353 -9.49356e-05 0.00895149 1.58206e-07 271.709 
-0.87 -0.19 -2.17525 5.45822 0.0091291 0.00869216 -0.000104692 0.00892472 1.57713e-07 271.743 
-0.77 -0.21 -4.17819 4.66886 0.0091668 0.00873096 -9.15975e-05 0.00895877 1.58333e-07 271.712 
-0.85 -0.19 -2.44353 5.48863 0.0091325 0.00869652 -0.000109252 0.00892887 1.58018e-07 271.344 
-0.75 -0.21 -4.71795 4.52734 0.0091764 0.00874971 -9.5433e-05 0.00897734 1.58508e-07 271.973 
-0.83 -0.19 -2.81118 5.1021 0.00912879 0.00870983 -0.000101634 0.00893388 1.57845e-07 271.795 
-0.81 -0.19 -3.37791 4.97439 0.0091524 0.00870408 -9.95016e-05 0.00893899 1.58069e-07 271.563 
-0.79 -0.19 -3.91533 5.13756 0.00917489 0.00872653 -8.81584e-05 0.0089686 1.58523e-07 271.683 
-0.77 -0.19 -4.17124 5.26337 0.00917515 0.00873662 -0.000104547 0.00896636 1.58638e-07 271.419 
-0.99 -0.33 -0.151969 2.45064 0.00909379 0.00877376 -8.31217e-05 0.0089549 1.58003e-07 272.162 
-0.97 -0.33 -0.453642 2.58678 0.00910797 0.00874551 -7.69994e-05 0.00894104 1.57909e-07 271.902 
-0.91 -0.33 -1.39893 2.84399 0.0091525 0.00874276 -5.71726e-05 0.00894799 1.57912e-07 272.107 
-0.99 -0.31 -0.160391 2.89066 0.00908121 0.00875354 -9.15679e-05 0.00893146 1.57709e-07 271.954 
-0.97 -0.31 -0.378076 2.6062 0.00909918 0.00874439 -7.96898e-05 0.00893558 1.5789e-07 271.768 
-0.87 -0.33 -2.12031 2.65159 0.00914856 0.00873395 -6.54507e-05 0.00894917 1.57979e-07 272.028 
-0.95 -0.31 -0.983901 3.22484 0.0091016 0.00872581 -7.90321e-05 0.00892445 1.57577e-07 271.969 
-0.85 -0.33 -2.33345 2.38758 0.00914743 0.00871855 -6.02268e-05 0.0089438 1.57777e-07 272.213 
-0.93 -0.31 -1.46387 3.16849 0.0091164 0.00873286 -8.03392e-05 0.00893466 1.57703e-07 272.063 
-0.91 -0.31 -1.76634 2.92991 0.00913774 0.00872778 -7.09526e-05 0.00894469 1.57735e-07 272.312 
-0.99 -0.29 -0.0896356 3.05317 0.00906398 0.00874907 -0.000102024 0.00892341 1.57611e-07 271.879 
-0.81 -0.33 -3.31057 2.49766 0.00916021 0.00871762 -4.65496e-05 0.0089567 1.57987e-07 272.244 
-0.89 -0.31 -1.75308 3.34176 0.00915183 0.0087196 -5.7982e-05 0.00894997 1.57958e-07 272.088 
-0.97 -0.29 -0.651558 3.23965 0.00907332 0.00872518 -9.60126e-05 0.00891216 1.57513e-07 271.705 
-0.87 -0.31 -2.02899 2.91064 0.009156 0.00873742 -6.40969e-05 0.00895093 1.58148e-07 271.79 
-0.95 -0.29 -0.882108 3.60614 0.00909663 0.00871767 -9.10377e-05 0.0089217 1.5748e-07 272.053 
-0.85 -0.31 -2.7295 2.74673 0.00914577 0.00871101 -5.87542e-05 0.00893612 1.57847e-07 271.859 
-0.93 -0.29 -1.16834 3.3391 0.00910649 0.00874235 -8.9196e-05 0.00893143 1.57606e-07 272.131 
-0.83 -0.31 -2.91882 3.06171 0.00914319 0.00871941 -5.10914e-05 0.00894654 1.57775e-07 272.299 
-0.91 -0.29 -1.33993 3.44012 0.00909754 0.00871124 -8.15662e-05 0.00891896 1.57492e-07 271.948 
-0.99 -0.27 -0.146306 3.35514 0.00907882 0.00874584 -0.000109335 0.00892988 1.57861e-07 271.645 
-0.81 -0.31 -3.29643 3.04187 0.00914506 0.00871124 -5.17345e-05 0.00894343 1.57838e-07 272.097 
-0.89 -0.29 -1.60717 3.24886 0.00910827 0.00871046 -7.71967e-05 0.00892233 1.57613e-07 271.843 
-0.97 -0.27 -0.41777 3.67795 0.00908011 0.00872002 -0.000111265 0.0089136 1.5742e-07 271.908 
-0.79 -0.31 -3.66727 2.88932 0.00915405 0.00873332 -4.99322e-05 0.00895329 1.58062e-07 272.011 
-0.87 -0.29 -2.09985 3.52075 0.00911497 0.00872661 -5.2061e-05 0.00892988 1.57835e-07 271.689 
-0.95 -0.27 -0.687207 3.70596 0.00908221 0.00871364 -0.000100163 0.00891086 1.57401e-07 271.859 
-0.77 -0.31 -3.90722 3.13922 0.00916283 0.00874442 -4.4984e-05 0.0089498 1.58291e-07 271.512 
-0.85 -0.29 -2.61862 3.34453 0.00912658 0.00871436 -5.60761e-05 0.00893474 1.57899e-07 271.726 
-0.93 -0.27 -0.819342 3.57915 0.00909904 0.00872406 -9.43318e-05 0.0089225 1.57413e-07 272.193 
-0.95 -0.33 -0.682047 2.50083 0.00912059 0.00872781 -6.6621e-05 0.00893245 1.57718e-07 271.969 
-0.93 -0.33 -1.08534 2.92543 0.00913009 0.00873222 -5.71654e-05 0.00893775 1.57716e-07 272.133 
-0.89 -0.33 -2.0028 2.8638 0.00915086 0.00871799 -5.58612e-05 0.00893904 1.57783e-07 272.058 
-0.83 -0.33 -2.87052 2.73965 0.00915157 0.00872028 -5.4497e-05 0.00895518 1.57972e-07 272.222 
-0.75 -0.31 -4.21305 2.77306 0.00917603 0.00877136 -4.34894e-05 0.00898825 1.58716e-07 271.948 
-0.75 -0.27 -4.37137 3.73812 0.0092021 0.00876981 -5.86381e-05 0.00899147 1.58734e-07 272.013 
-0.75 -0.25 -4.4127 3.94535 0.00917317 0.00876501 -6.90357e-05 0.00897339 1.58548e-07 271.785 
-0.75 -0.19 -4.5963 4.9371 0.00916722 0.00873876 -9.92742e-05 0.00896966 1.58733e-07 271.357 
-0.79 -0.33 -3.76567 2.62043 0.00914899 0.00873603 -4.29485e-05 0.00895861 1.58184e-07 271.962 
-0.75 -0.33 -4.31987 2.53707 0.00916841 0.00877525 -2.30505e-05 0.00898143 1.58617e-07 271.91 
-0.81 -0.17 -3.59589 5.78436 0.00913416 0.00869918 -0.000108652 0.0089224 1.57738e-07 271.628 
-0.79 -0.17 -4.07098 5.53182 0.0091418 0.00872983 -0.000111122 0.0089528 1.58176e-07 271.799 
-0.75 -0.17 -4.42883 5.44914 0.00916361 0.00873946 -0.000102984 0.0089626 1.58398e-07 271.716 
-0.73 -0.31 -4.78015 2.82571 0.00918401 0.00879061 -4.4151e-05 0.00899723 1.58615e-07 272.392 
-0.73 -0.29 -4.48044 3.13961 0.00919414 0.00878886 -4.88133e-05 0.00900073 1.59093e-07 271.679 
-0.73 -0.27 -5.06294 3.32008 0.00919834 0.0087885 -6.05242e-05 0.00900379 1.58954e-07 272.01 
-0.73 -0.25 -4.53305 3.7953 0.00919367 0.00878209 -6.47586e-05 0.00900216 1.59195e-07 271.548 
-0.73 -0.23 -4.72388 4.14243 0.00918186 0.00877601 -7.3178e-05 0.00898796 1.5883e-07 271.743 
-0.73 -0.21 -4.9948 4.3985 0.00919369 0.00877183 -9.15787e-05 0.00898202 1.58653e-07 271.868 
-0.73 -0.19 -4.8103 4.75822 0.0091675 0.00877662 -9.80355e-05 0.00898405 1.58784e-07 271.705 
-0.79 -0.05 -3.21835 7.6006 0.00905004 0.0087044 -0.000157534 0.00889401 1.57449e-07 271.261 
-0.87 -0.03 -2.19648 8.45677 0.0089878 0.00861333 -0.000184269 0.00881848 1.56253e-07 271.017 
-0.83 -0.05 -2.61359 8.11408 0.00902914 0.00868489 -0.000149447 0.00887871 1.56949e-07 271.657 
-0.91 -0.03 -1.78044 8.1308 0.00899039 0.00862366 -0.000185139 0.0088255 1.56135e-07 271.438 
-0.81 -0.05 -2.84591 7.73924 0.0090418 0.00869257 -0.000136817 0.00888895 1.57463e-07 271.082 
-0.89 -0.03 -1.79132 8.45626 0.00897862 0.00862445 -0.000177352 0.00882142 1.56179e-07 271.236 
-0.77 -0.05 -3.50945 7.09024 0.00906466 0.00874172 -0.000155583 0.00892037 1.57753e-07 271.541 
-0.85 -0.03 -2.46825 7.9736 0.00899287 0.00865174 -0.000175911 0.00884618 1.56626e-07 271.221 
-0.75 -0.05 -3.75607 7.05071 0.00907447 0.00876817 -0.000170026 0.00892979 1.57911e-07 271.556 
-0.83 -0.03 -2.63674 8.40142 0.00901589 0.00866749 -0.000169337 0.00886587 1.57027e-07 271.129 
-0.81 -0.03 -3.12241 8.01883 0.00902947 0.00868764 -0.000154401 0.00887849 1.57314e-07 271.02 
-0.79 -0.03 -3.12583 8.01097 0.00905153 0.00871928 -0.000156679 0.00890013 1.57451e-07 271.445 
-0.77 -0.03 -3.4727 7.25741 0.00905214 0.00874484 -0.000163351 0.00891633 1.57661e-07 271.577 
-0.95 -0.17 -0.731983 5.21681 0.00908412 0.00869962 -0.000152169 0.00889544 1.57373e-07 271.435 
-0.99 -0.15 -0.176868 4.66364 0.0090436 0.00871196 -0.000175577 0.00889274 1.57177e-07 271.691 
-0.89 -0.17 -1.71667 5.83567 0.00911246 0.00867076 -0.000123582 0.00890687 1.57282e-07 271.942 
-0.97 -0.15 -0.471591 5.53091 0.00906345 0.00870358 -0.000170466 0.00889439 1.57313e-07 271.508 
-0.95 -0.15 -0.790855 5.70783 0.00907232 0.00868146 -0.000158575 0.00888981 1.57297e-07 271.396 
-0.93 -0.15 -1.0747 5.82609 0.00908026 0.00866953 -0.000142831 0.00889485 1.57353e-07 271.452 
-0.83 -0.17 -2.98098 5.52215 0.00913752 0.00871589 -0.000101672 0.00893894 1.57955e-07 271.759 
-0.91 -0.15 -1.39503 6.23669 0.00909559 0.00867739 -0.000143467 0.00890381 1.57467e-07 271.529 
-0.99 -0.13 -0.290335 5.09806 0.00905253 0.0087168 -0.000192409 0.00889374 1.57333e-07 271.453 
-0.89 -0.15 -1.64784 6.04395 0.00909173 0.00865679 -0.000126268 0.00889143 1.57249e-07 271.528 
-0.97 -0.13 -0.528586 5.84149 0.00906272 0.00869 -0.000168293 0.00888547 1.57193e-07 271.443 
-0.87 -0.15 -2.04937 6.21743 0.00909798 0.00868687 -0.000126189 0.00891558 1.5739e-07 272.022 
-0.95 -0.13 -0.877717 6.11887 0.00906625 0.00866698 -0.000169335 0.00888372 1.57391e-07 271.048 
-0.77 -0.17 -4.26023 5.21547 0.0091563 0.00873352 -0.000101915 0.00895876 1.58579e-07 271.289 
-0.85 -0.15 -2.3525 6.42619 0.00910772 0.00868251 -0.000110501 0.00891381 1.57614e-07 271.58 
-0.93 -0.13 -1.28308 6.02529 0.00907853 0.00866905 -0.000162179 0.00889266 1.57235e-07 271.589 
-0.83 -0.15 -2.92049 6.06161 0.00912444 0.00871051 -0.000115184 0.00893336 1.57933e-07 271.626 
-0.91 -0.13 -1.72117 6.67605 0.00908127 0.00865915 -0.000148139 0.00889532 1.57303e-07 271.553 
-0.99 -0.11 -0.174901 5.53821 0.00903902 0.00869961 -0.000187433 0.00888213 1.57055e-07 271.579 
-0.81 -0.15 -3.32586 6.07595 0.00912966 0.00871493 -0.000111867 0.00893946 1.57868e-07 271.925 
-0.89 -0.13 -1.96202 6.18641 0.00909775 0.0086548 -0.000136565 0.00889652 1.57549e-07 271.166 
-0.97 -0.11 -0.663197 6.12546 0.00903337 0.00867497 -0.000187467 0.00887362 1.56878e-07 271.624 
-0.79 -0.15 -3.75097 5.8884 0.00912742 0.00872025 -0.000119749 0.00894249 1.58068e-07 271.672 
-0.87 -0.13 -2.50335 6.83776 0.00910656 0.00867214 -0.000127919 0.0089144 1.57789e-07 271.297 
-0.95 -0.11 -0.972254 6.50476 0.00904687 0.00866504 -0.000176096 0.00887334 1.56958e-07 271.477 
-0.77 -0.15 -4.22631 5.53593 0.00913949 0.00873271 -0.000114568 0.00895141 1.58434e-07 271.314 
-0.85 -0.13 -2.86974 6.40257 0.00912034 0.00868901 -0.000127598 0.00892251 1.57764e-07 271.588 
-0.93 -0.11 -1.32105 6.50606 0.00906437 0.00866029 -0.000172106 0.00888266 1.57342e-07 271.1 
-0.75 -0.15 -4.55424 5.74663 0.00914603 0.00874199 -0.000109762 0.00896351 1.58516e-07 271.541 
-0.83 -0.13 -2.87107 6.67849 0.00912864 0.0087004 -0.000124928 0.00893316 1.57718e-07 271.991 
-0.91 -0.11 -1.66444 6.95643 0.00906874 0.00864721 -0.00015681 0.00887252 1.57126e-07 271.162 
-0.99 -0.09 -0.0102543 5.88407 0.00900116 0.00869094 -0.000203254 0.00885838 1.56723e-07 271.426 
-0.81 -0.13 -3.35573 6.42948 0.00911535 0.00871009 -0.000112172 0.00892846 1.58011e-07 271.343 
-0.89 -0.11 -1.99894 6.7997 0.00907817 0.0086486 -0.000147888 0.00888268 1.57421e-07 270.964 
-0.97 -0.09 -0.540221 6.73414 0.00902327 0.00866759 -0.000194655 0.00887274 1.57056e-07 271.291 
-0.79 -0.13 -3.50339 6.3453 0.00912787 0.00872617 -0.000121808 0.00894394 1.58162e-07 271.555 
-0.87 -0.11 -2.40789 7.17906 0.00909284 0.00866283 -0.00014624 0.0089017 1.5767e-07 271.115 
-0.95 -0.09 -1.03136 6.7732 0.00903897 0.00867008 -0.000182134 0.00888142 1.5721e-07 271.29 
-0.77 -0.13 -4.00446 6.02378 0.00912808 0.00872359 -0.00012025 0.00893999 1.58067e-07 271.597 
-0.85 -0.11 -2.57849 6.70069 0.00910368 0.00868974 -0.000129103 0.00891038 1.57766e-07 271.215 
-0.93 -0.09 -1.23531 6.79542 0.00903464 0.00864106 -0.000181252 0.00886185 1.57103e-07 270.876 
-0.83 -0.11 -2.99394 7.07799 0.00909328 0.00868692 -0.000126041 0.00891485 1.5772e-07 271.431 
-0.91 -0.09 -1.34847 7.19807 0.00903842 0.00863264 -0.000162026 0.00886114 1.56975e-07 271.075 
-0.99 -0.07 -0.475114 6.32103 0.00900269 0.00867966 -0.000206485 0.00885592 1.56625e-07 271.52 
-0.81 -0.11 -3.30633 6.525 0.00912668 0.00871867 -0.000128595 0.00893707 1.57818e-07 271.937 
-0.89 -0.09 -2.06222 7.36543 0.0090493 0.00864909 -0.000165699 0.0088673 1.57212e-07 270.854 
-0.97 -0.07 -0.640529 7.07453 0.00899169 0.0086602 -0.00020256 0.00885214 1.56631e-07 271.394 
-0.79 -0.11 -3.54214 6.64199 0.00913022 0.00871722 -0.000124584 0.00893999 1.5818e-07 271.403 
-0.87 -0.09 -2.37064 7.36706 0.00906611 0.00865372 -0.000158029 0.00888179 1.5746e-07 270.87 
-0.95 -0.07 -0.811354 7.03531 0.00899675 0.00866426 -0.000189928 0.0088554 1.56646e-07 271.469 
-0.77 -0.11 -3.94438 6.33765 0.00912855 0.0087187 -0.000125293 0.00894395 1.58104e-07 271.654 
-0.85 -0.09 -2.68865 7.20529 0.00907023 0.0086671 -0.000146977 0.00888292 1.57294e-07 271.191 
-0.93 -0.07 -1.13949 7.18601 0.0090041 0.00863216 -0.000183123 0.00884958 1.56737e-07 271.132 
-0.75 -0.11 -4.29168 6.23563 0.00913698 0.00875971 -0.000126216 0.00896446 1.58532e-07 271.542 
-0.83 -0.09 -3.05825 7.09886 0.00909662 0.00870113 -0.000139114 0.00891934 1.57702e-07 271.598 
-0.91 -0.07 -1.72382 7.56774 0.00902214 0.00862733 -0.000182157 0.00885563 1.56664e-07 271.444 
-0.99 -0.05 0.0280756 6.78417 0.00897567 0.00866933 -0.000215745 0.00884222 1.56398e-07 271.495 
-0.81 -0.09 -3.28572 7.09261 0.00909487 0.00871233 -0.000140325 0.0089183 1.57761e-07 271.464 
-0.89 -0.07 -1.88916 7.71036 0.00903995 0.00864952 -0.000177967 0.00886134 1.56976e-07 271.079 
-0.97 -0.05 -0.501155 7.17174 0.00900423 0.00866227 -0.000210966 0.00885552 1.56707e-07 271.366 
-0.79 -0.09 -3.71952 6.8073 0.00909918 0.00871309 -0.000123544 0.00892128 1.57852e-07 271.398 
-0.87 -0.07 -2.22335 7.77647 0.00903402 0.00863218 -0.000158107 0.0088566 1.56846e-07 271.159 
-0.95 -0.05 -0.584651 7.38555 0.00900229 0.0086424 -0.000197735 0.00884557 1.56457e-07 271.495 
-0.77 -0.09 -3.83244 6.7889 0.00909902 0.00872062 -0.00012301 0.00893347 1.5803e-07 271.464 
-0.85 -0.07 -2.56147 7.47275 0.00904457 0.00866105 -0.000151541 0.00887459 1.56949e-07 271.532 
-0.93 -0.05 -1.18687 7.6428 0.00900164 0.00862802 -0.000181967 0.00883794 1.56399e-07 271.36 
-0.75 -0.09 -4.16051 6.48871 0.00908838 0.00875132 -0.000130115 0.00893604 1.5803e-07 271.542 
-0.83 -0.07 -2.95998 7.61548 0.00904869 0.00869555 -0.000146262 0.00888887 1.57202e-07 271.53 
-0.91 -0.05 -1.33091 7.96911 0.00899733 0.00862824 -0.000184728 0.00883693 1.56448e-07 271.246 
-0.99 -0.03 -0.119099 7.03597 0.00896588 0.00866558 -0.000230558 0.00883422 1.56259e-07 271.49 
-0.81 -0.07 -3.56198 7.55223 0.00904832 0.00870366 -0.000146995 0.00889296 1.57439e-07 271.247 
-0.89 -0.05 -1.74354 8.00588 0.00899919 0.00863286 -0.00018101 0.00883943 1.5673e-07 270.833 
-0.97 -0.03 -0.34618 7.55025 0.00896404 0.0086348 -0.000216631 0.00882137 1.5622e-07 271.163 