ITEM: TIMESTEP
927000
ITEM: NUMBER OF CELLS
5000
ITEM: BOX BOUNDS ss ss pp
-1 1
-0.5 0.5
-0.5 0.5
ITEM: CELLS xc yc f_U[*] f_V[*] f_Tau[1] f_Tau[2] f_Tau[3] f_Press[*] f_Mrho[*] f_Ttra[*] 
-0.99 -0.49 -0.201592 0.322826 0.00898555 0.00875208 -3.48787e-05 0.00887873 1.56598e-07 272.267 
-0.97 -0.49 -0.650444 0.097106 0.00898499 0.00875805 -3.35127e-05 0.00887921 1.56638e-07 272.212 
-0.95 -0.49 -0.759537 0.0374515 0.00898746 0.00874945 -3.49083e-05 0.00887625 1.56666e-07 272.073 
-0.93 -0.49 -0.957067 0.173677 0.00899765 0.00875655 -2.59097e-05 0.00888498 1.56842e-07 272.035 
-0.91 -0.49 -1.26231 0.046015 0.00900724 0.00873164 -2.04311e-05 0.00887115 1.56754e-07 271.764 
-0.99 -0.47 -0.176278 0.605867 0.00901539 0.00877673 -2.07832e-05 0.00890589 1.57059e-07 272.298 
-0.89 -0.49 -1.60244 0.259328 0.00902683 0.00874376 -2.49264e-05 0.00888779 1.56837e-07 272.13 
-0.97 -0.47 -0.333727 0.459707 0.00901267 0.0087531 -4.02857e-05 0.00889491 1.56782e-07 272.443 
-0.87 -0.49 -1.82011 0.00332068 0.00904476 0.00876899 -1.34399e-05 0.00890473 1.57142e-07 272.119 
-0.95 -0.47 -0.724414 0.347873 0.00902669 0.00875492 -3.50205e-05 0.00890059 1.569e-07 272.413 
-0.85 -0.49 -2.00667 0.165945 0.00904767 0.00874968 -6.16776e-06 0.0088955 1.56786e-07 272.455 
-0.93 -0.47 -0.993571 0.278345 0.00902727 0.0087463 -3.60753e-05 0.00888901 1.5681e-07 272.213 
-0.83 -0.49 -2.04065 -0.0957465 0.00905344 0.00876414 1.45927e-06 0.00891351 1.57133e-07 272.403 
-0.91 -0.47 -1.29348 0.713978 0.00903622 0.00873815 -3.23525e-05 0.00889147 1.56907e-07 272.12 
-0.99 -0.45 -0.149396 0.909243 0.00905776 0.00878397 -3.10567e-05 0.00892873 1.57417e-07 272.376 
-0.81 -0.49 -2.20917 0.238064 0.00905654 0.00876899 9.18757e-06 0.00892183 1.57403e-07 272.19 
-0.89 -0.47 -1.74149 0.404137 0.00903868 0.00874019 -3.51755e-05 0.0088891 1.56899e-07 272.062 
-0.97 -0.45 -0.415749 0.714921 0.00906273 0.00876552 -4.03409e-05 0.00892143 1.57218e-07 272.498 
-0.79 -0.49 -2.50117 0.0477445 0.00906178 0.00877301 1.70449e-05 0.00892703 1.574e-07 272.353 
-0.87 -0.47 -1.99485 0.18285 0.00904221 0.00874917 -2.2786e-05 0.00890635 1.56933e-07 272.531 
-0.95 -0.45 -0.698686 0.787336 0.00905378 0.00874876 -4.24253e-05 0.00890581 1.56926e-07 272.527 
-0.77 -0.49 -2.51413 0.00229554 0.00906848 0.00879684 2.89078e-05 0.00894465 1.57637e-07 272.48 
-0.85 -0.47 -2.12834 0.264349 0.00905235 0.00875131 -1.24789e-05 0.00890654 1.56988e-07 272.442 
-0.93 -0.45 -1.18233 0.516424 0.00906553 0.00873933 -4.43152e-05 0.0089079 1.57178e-07 272.154 
-0.83 -0.47 -2.40734 0.17131 0.00906066 0.00875152 -8.76606e-06 0.00891641 1.57137e-07 272.485 
-0.91 -0.45 -1.36368 0.928031 0.00906789 0.00874499 -3.54374e-05 0.00890672 1.5718e-07 272.114 
-0.99 -0.43 -0.19187 1.25094 0.00908341 0.00878308 -3.82664e-05 0.00894247 1.57848e-07 272.051 
-0.81 -0.47 -2.58825 0.488702 0.00907357 0.00876353 -1.26291e-06 0.00893213 1.57484e-07 272.363 
-0.89 -0.45 -1.73522 0.747929 0.00907634 0.00873034 -3.71941e-05 0.00889885 1.57094e-07 272.022 
-0.97 -0.43 -0.495834 0.968661 0.00908668 0.00877165 -3.53751e-05 0.00893877 1.57582e-07 272.396 
-0.79 -0.47 -2.90207 0.308445 0.0090851 0.00876018 1.0612e-05 0.0089395 1.57731e-07 272.162 
-0.87 -0.45 -2.06239 0.604907 0.00908037 0.00873991 -2.43601e-05 0.00891092 1.5707e-07 272.434 
-0.95 -0.43 -0.680549 0.940426 0.00908944 0.00875108 -4.411e-05 0.00892629 1.57478e-07 272.196 
-0.77 -0.47 -3.16248 0.0665118 0.00910031 0.0087929 1.44411e-05 0.00895433 1.57984e-07 272.176 
-0.85 -0.45 -2.40859 0.386938 0.00908867 0.00874207 -1.9802e-05 0.00892055 1.5726e-07 272.399 
-0.93 -0.43 -0.875205 1.05753 0.00909013 0.00874313 -4.27721e-05 0.00892118 1.57379e-07 272.212 
-0.75 -0.47 -3.30305 0.33183 0.00910493 0.00880977 1.8078e-05 0.00896286 1.57815e-07 272.727 
-0.83 -0.45 -2.67773 0.447567 0.00909789 0.00875599 -1.73973e-05 0.00893489 1.57598e-07 272.251 
-0.91 -0.43 -1.51333 1.05868 0.00908661 0.00873837 -4.47717e-05 0.00891027 1.57192e-07 272.202 
-0.99 -0.41 -0.231719 1.64957 0.00908392 0.00877383 -4.82609e-05 0.00893543 1.57738e-07 272.026 
-0.81 -0.45 -2.9118 0.758685 0.00909728 0.00874494 -1.21796e-05 0.00893248 1.57518e-07 272.316 
-0.89 -0.43 -1.52745 1.16295 0.00908165 0.00872141 -3.78286e-05 0.00890457 1.57186e-07 272.038 
-0.97 -0.41 -0.396322 1.06149 0.00910177 0.00877447 -4.72134e-05 0.00894253 1.57591e-07 272.495 
-0.79 -0.45 -3.06159 0.57481 0.00910499 0.0087542 2.85289e-07 0.00893664 1.57709e-07 272.112 
-0.87 -0.43 -1.91853 0.814521 0.00908749 0.00873696 -3.68307e-05 0.00892088 1.57359e-07 272.237 
-0.95 -0.41 -0.574862 1.30692 0.00910855 0.00875993 -4.06358e-05 0.00894324 1.57672e-07 272.378 
-0.77 -0.45 -3.47648 0.410913 0.00911455 0.00878605 7.47031e-06 0.00895541 1.57875e-07 272.397 
-0.85 -0.43 -2.11728 0.792184 0.00909982 0.0087365 -2.79986e-05 0.00892451 1.57479e-07 272.14 
-0.93 -0.41 -1.17893 1.55385 0.00909827 0.00872818 -4.23951e-05 0.00892052 1.57426e-07 272.11 
-0.75 -0.45 -3.71931 0.505171 0.00911719 0.0088018 1.62871e-05 0.00896293 1.5814e-07 272.169 
-0.83 -0.43 -2.51226 0.829078 0.0091025 0.00874835 -1.70935e-05 0.00893228 1.57519e-07 272.308 
-0.91 -0.41 -1.30427 1.30039 0.009102 0.00873781 -3.48309e-05 0.00892784 1.57682e-07 271.89 
-0.99 -0.39 -0.121684 1.89012 0.00908458 0.00878035 -5.41618e-05 0.00894455 1.5792e-07 271.989 
-0.81 -0.43 -3.06287 0.9848 0.00911035 0.00874103 -1.48123e-05 0.00893562 1.57644e-07 272.193 
-0.89 -0.41 -1.69875 1.39378 0.00910201 0.0087334 -3.96404e-05 0.00892471 1.5735e-07 272.369 
-0.97 -0.39 -0.597448 1.36855 0.00908815 0.00876987 -5.14914e-05 0.00893573 1.57705e-07 272.092 
-0.79 -0.43 -3.25339 0.821902 0.00911724 0.00874532 -8.59637e-06 0.00894094 1.57857e-07 271.988 
-0.87 -0.41 -2.02813 1.22858 0.00909897 0.00872478 -3.74072e-05 0.0089244 1.57305e-07 272.437 
-0.95 -0.39 -0.978948 1.56831 0.00908273 0.00874341 -4.48866e-05 0.00891499 1.57261e-07 272.226 
-0.77 -0.43 -3.55581 0.744176 0.00912929 0.00878106 8.1295e-07 0.00896592 1.58222e-07 272.118 
-0.85 -0.41 -2.60345 1.08664 0.00909846 0.00873598 -3.7251e-05 0.00893077 1.57618e-07 272.091 
-0.93 -0.39 -0.659525 1.8237 0.00909646 0.00873241 -3.5498e-05 0.0089223 1.57495e-07 272.045 
-0.83 -0.41 -2.79134 1.15992 0.0091126 0.00873697 -3.1755e-05 0.00893162 1.57636e-07 272.085 
-0.91 -0.39 -1.20026 1.83093 0.00909922 0.00873828 -4.4343e-05 0.00892937 1.575e-07 272.252 
-0.99 -0.37 0.144044 2.06819 0.00908566 0.00879046 -5.91985e-05 0.0089511 1.58114e-07 271.854 
-0.81 -0.41 -2.88404 1.33487 0.00912513 0.00873071 -1.77994e-05 0.00893469 1.57742e-07 271.997 
-0.89 -0.39 -1.47583 1.5467 0.00910896 0.00873664 -4.64851e-05 0.00893782 1.57632e-07 272.282 
-0.97 -0.37 -0.238865 2.01402 0.00909209 0.00875516 -5.72548e-05 0.00893691 1.57667e-07 272.194 
-0.79 -0.41 -3.30811 1.02582 0.00913893 0.0087495 -1.60841e-05 0.00895621 1.58106e-07 272.024 
-0.87 -0.39 -1.79344 1.60672 0.00912227 0.00871825 -4.23505e-05 0.00893182 1.57566e-07 272.212 
-0.95 -0.37 -0.721178 1.66392 0.00910783 0.00874119 -5.16103e-05 0.00893178 1.57668e-07 272.034 
-0.77 -0.41 -3.71082 1.22168 0.009143 0.00877283 -1.96515e-05 0.00897267 1.58383e-07 272.047 
-0.85 -0.39 -2.15539 1.57788 0.0091334 0.00874087 -3.98588e-05 0.00894508 1.58025e-07 271.824 
-0.93 -0.37 -1.27626 1.90994 0.00911734 0.00873318 -5.06202e-05 0.00893615 1.57671e-07 272.162 
-0.75 -0.41 -3.94099 1.07744 0.00916173 0.00879246 -8.67524e-06 0.00898909 1.58596e-07 272.179 
-0.83 -0.39 -2.64199 1.41754 0.00912937 0.0087261 -3.92145e-05 0.00893466 1.57773e-07 271.942 
-0.91 -0.37 -1.2705 2.08465 0.00913929 0.00874005 -5.74796e-05 0.00894911 1.57731e-07 272.454 
-0.99 -0.35 -0.238467 2.10983 0.00910079 0.00877944 -7.63608e-05 0.00895147 1.58149e-07 271.805 
-0.81 -0.39 -2.88697 1.39902 0.0091317 0.00872571 -3.42092e-05 0.0089369 1.57715e-07 272.109 
-0.89 -0.37 -1.64481 1.9751 0.00914362 0.00873461 -4.85614e-05 0.00894962 1.57879e-07 272.215 
-0.97 -0.35 -0.408329 2.44215 0.00911073 0.00874988 -6.434e-05 0.00894168 1.57865e-07 271.997 
-0.79 -0.39 -3.2039 1.56162 0.00914255 0.00874241 -2.66874e-05 0.00895623 1.581e-07 272.034 
-0.87 -0.37 -2.16681 2.05718 0.00913786 0.00871556 -5.02836e-05 0.00893682 1.57596e-07 272.313 
-0.95 -0.35 -0.692574 2.02022 0.00912198 0.00873436 -6.1585e-05 0.00893597 1.5777e-07 271.988 
-0.77 -0.39 -3.73267 1.59256 0.00915103 0.00877806 -2.02193e-05 0.00898005 1.58454e-07 272.149 
-0.85 -0.37 -2.51039 1.86466 0.0091433 0.00873713 -4.94807e-05 0.00894564 1.57888e-07 272.078 
-0.93 -0.35 -1.11105 2.33881 0.00913124 0.00873862 -6.7449e-05 0.00894589 1.57849e-07 272.152 
-0.83 -0.37 -2.8025 1.78046 0.00914847 0.00871763 -3.91601e-05 0.00893906 1.57796e-07 272.036 
-0.91 -0.35 -1.50949 2.36287 0.00912038 0.0087382 -5.48469e-05 0.00893168 1.57608e-07 272.135 
-0.81 -0.37 -3.22185 1.62312 0.00915685 0.00872246 -3.47175e-05 0.00894999 1.57892e-07 272.203 
-0.89 -0.35 -1.82361 2.41552 0.00912599 0.00872442 -5.56456e-05 0.00893169 1.57606e-07 272.14 
-0.79 -0.37 -3.66683 2.04457 0.00915761 0.00874046 -3.19973e-05 0.00896473 1.58321e-07 271.912 
-0.87 -0.35 -2.19815 2.27741 0.00914431 0.00872262 -5.21142e-05 0.00894174 1.57753e-07 272.191 
-0.77 -0.37 -3.90274 2.07461 0.0091643 0.00877455 -2.72847e-05 0.00897747 1.58413e-07 272.14 
-0.85 -0.35 -2.60649 2.35367 0.00915039 0.00871959 -4.96884e-05 0.00893764 1.57911e-07 271.795 
-0.83 -0.35 -3.05624 2.12113 0.00914772 0.00871809 -4.56521e-05 0.00893592 1.57813e-07 271.911 
-0.81 -0.35 -3.45581 2.1292 0.00915308 0.00872249 -4.86637e-05 0.00895059 1.58002e-07 272.031 
-0.79 -0.35 -3.69987 2.31825 0.00917298 0.00873459 -4.06089e-05 0.00896422 1.58331e-07 271.879 
-0.77 -0.35 -3.89342 2.36355 0.00918333 0.00876383 -3.29263e-05 0.0089818 1.58407e-07 272.281 
-0.75 -0.35 -4.14442 2.27923 0.00918662 0.00877989 -2.46943e-05 0.00899447 1.58689e-07 272.182 
-0.75 -0.49 -2.656 0.141354 0.00908419 0.00880703 2.52379e-05 0.00894802 1.5779e-07 272.319 
-0.75 -0.43 -3.92833 0.754824 0.00913983 0.00879797 -2.26047e-07 0.00898128 1.58399e-07 272.28 
-0.75 -0.39 -4.52292 1.50572 0.0091535 0.00878006 -2.15742e-05 0.00898569 1.58546e-07 272.162 
-0.75 -0.37 -4.12752 1.98826 0.00916334 0.00877843 -2.11142e-05 0.0089794 1.58391e-07 272.238 
-0.77 -0.33 -3.88275 2.67097 0.00915669 0.00875085 -4.42346e-05 0.00895639 1.58249e-07 271.783 
-0.73 -0.49 -2.98331 0.193887 0.00908856 0.0088218 2.54957e-05 0.00896441 1.58079e-07 272.318 
-0.73 -0.47 -3.33765 0.186865 0.00910887 0.0088115 2.61292e-05 0.00897337 1.58152e-07 272.466 
-0.73 -0.45 -3.8697 0.337959 0.00912563 0.00880965 1.29895e-05 0.00897687 1.5834e-07 272.247 
-0.73 -0.43 -4.38924 0.855432 0.00915623 0.00880907 5.10358e-06 0.00899225 1.58565e-07 272.328 
-0.73 -0.41 -4.3555 1.10356 0.00916372 0.00880356 -5.04123e-06 0.00899603 1.5867e-07 272.261 
-0.73 -0.39 -4.64805 1.47424 0.00916549 0.00879858 -6.51455e-06 0.00899259 1.58602e-07 272.273 
-0.73 -0.37 -4.51836 1.68291 0.00916365 0.00877761 -2.2888e-05 0.00898202 1.58442e-07 272.228 
-0.73 -0.35 -4.50012 2.00858 0.00918445 0.00877769 -1.94399e-05 0.00899064 1.58615e-07 272.194 
-0.81 -0.29 -3.28052 3.33669 0.00915421 0.00871652 -6.44618e-05 0.00894428 1.58002e-07 271.84 
-0.89 -0.27 -1.76532 3.87234 0.00911957 0.00869954 -8.66295e-05 0.00892491 1.57514e-07 272.092 
-0.97 -0.25 -0.597512 3.73134 0.00909495 0.00872469 -0.000107574 0.00891847 1.57494e-07 271.93 
-0.83 -0.29 -3.00983 3.36556 0.00914545 0.00871979 -7.1482e-05 0.00894586 1.57805e-07 272.228 
-0.91 -0.27 -1.38475 3.82082 0.00911851 0.008703 -8.9324e-05 0.00892652 1.57605e-07 271.983 
-0.99 -0.25 -0.25308 3.79016 0.00908982 0.00874581 -0.000114264 0.00892956 1.57784e-07 271.768 
-0.79 -0.29 -3.64721 3.24686 0.00916891 0.00871975 -6.08461e-05 0.00895085 1.58065e-07 271.931 
-0.87 -0.27 -2.33221 4.05374 0.00912213 0.00870547 -7.44773e-05 0.00893312 1.57722e-07 271.983 
-0.95 -0.25 -0.734639 3.86301 0.00910767 0.00872683 -0.000106654 0.00892822 1.57669e-07 271.925 
-0.77 -0.29 -4.04717 3.26149 0.00918529 0.00874494 -4.95202e-05 0.00897365 1.58548e-07 271.793 
-0.85 -0.27 -2.64884 3.70894 0.0091373 0.00871237 -7.36316e-05 0.00893396 1.57744e-07 271.971 
-0.93 -0.25 -1.15554 4.04923 0.00910253 0.00870462 -0.000107535 0.00891595 1.57447e-07 271.935 
-0.75 -0.29 -4.51425 3.12249 0.00918363 0.00876284 -5.32893e-05 0.0089857 1.58643e-07 271.995 
-0.83 -0.27 -3.02942 3.65025 0.009149 0.00872218 -7.16094e-05 0.00894933 1.58064e-07 271.886 
-0.91 -0.25 -1.57286 4.19806 0.00911409 0.00869449 -9.93916e-05 0.00891514 1.57482e-07 271.849 
-0.99 -0.23 0.0166868 4.08611 0.00906871 0.0087372 -0.000127948 0.00891781 1.57511e-07 271.88 
-0.81 -0.27 -3.57763 3.70137 0.00915704 0.00871445 -8.18771e-05 0.00894794 1.58052e-07 271.865 
-0.89 -0.25 -2.12384 4.32646 0.00912619 0.00869162 -8.61699e-05 0.0089268 1.57497e-07 272.178 
-0.97 -0.23 -0.252374 3.93998 0.00908564 0.00873274 -0.000120789 0.00892391 1.57695e-07 271.749 
-0.79 -0.27 -4.0507 3.6568 0.00916705 0.00870692 -7.30472e-05 0.0089429 1.58108e-07 271.615 
-0.87 -0.25 -2.26156 4.31916 0.00914266 0.0087016 -8.43668e-05 0.00894235 1.57951e-07 271.869 
-0.95 -0.23 -0.762638 4.18074 0.00909117 0.00871282 -0.000117291 0.00891578 1.57443e-07 271.936 
-0.77 -0.27 -4.29941 3.65109 0.00917242 0.00873918 -6.16695e-05 0.00897045 1.58451e-07 271.862 
-0.85 -0.25 -2.55345 4.10931 0.00915263 0.00871374 -8.91823e-05 0.00894158 1.57847e-07 272.024 
-0.93 -0.23 -1.03483 4.39222 0.00910805 0.00870686 -0.000111914 0.00892027 1.5748e-07 272.009 
-0.83 -0.25 -3.05146 4.04141 0.00915705 0.00871215 -8.64086e-05 0.00893699 1.58156e-07 271.353 
-0.91 -0.23 -1.37387 4.65623 0.00911376 0.00868264 -0.000105246 0.00891842 1.57437e-07 272.026 
-0.99 -0.21 -0.000284751 4.11365 0.00909331 0.00873622 -0.000132638 0.00892885 1.57819e-07 271.686 
-0.81 -0.25 -3.25946 4.22912 0.00915948 0.00872498 -7.80618e-05 0.00895119 1.58316e-07 271.511 
-0.89 -0.23 -1.88913 4.84598 0.0091219 0.00868146 -0.000100283 0.00891704 1.57467e-07 271.933 
-0.97 -0.21 -0.146799 4.30522 0.00910078 0.00870924 -0.000128855 0.00891853 1.57667e-07 271.633 
-0.79 -0.25 -3.80678 4.19328 0.00915114 0.00869723 -7.90479e-05 0.00893444 1.58016e-07 271.517 
-0.87 -0.23 -2.35767 4.5266 0.00913587 0.00870441 -0.000101315 0.00893013 1.5776e-07 271.826 
-0.95 -0.21 -0.441678 4.55274 0.00910965 0.00871915 -0.000123334 0.00892756 1.57504e-07 272.19 
-0.77 -0.25 -4.33232 3.81062 0.00916245 0.00873445 -8.14664e-05 0.00895494 1.58217e-07 271.793 
-0.85 -0.23 -2.75113 4.61708 0.00913981 0.00870897 -8.92951e-05 0.00892983 1.57751e-07 271.833 
-0.93 -0.21 -1.1492 4.82216 0.00911045 0.00869786 -0.000121141 0.00891541 1.57579e-07 271.69 
-0.83 -0.23 -3.11413 4.37632 0.00913187 0.00870502 -8.1201e-05 0.00892523 1.57811e-07 271.589 
-0.91 -0.21 -1.46076 4.91617 0.00911667 0.00867644 -0.000112648 0.008915 1.57539e-07 271.746 
-0.99 -0.19 -0.173868 4.27263 0.00907693 0.00872643 -0.000145894 0.00891762 1.57591e-07 271.736 
-0.81 -0.23 -3.50678 4.38862 0.00914454 0.00871463 -8.71449e-05 0.00894311 1.58038e-07 271.742 
-0.89 -0.21 -1.69478 5.37072 0.00913257 0.00868859 -0.000112176 0.00893325 1.57793e-07 271.865 
-0.97 -0.19 -0.637146 4.77351 0.00909055 0.00870389 -0.000140778 0.00890331 1.57533e-07 271.401 
-0.79 -0.23 -3.61275 4.72134 0.00916511 0.00871005 -8.2557e-05 0.00894921 1.58206e-07 271.64 
-0.87 -0.21 -2.13925 4.98694 0.0091334 0.00868513 -0.000108925 0.00892399 1.57838e-07 271.505 
-0.95 -0.19 -0.938216 4.90204 0.00910436 0.00871626 -0.000129987 0.00891634 1.57516e-07 271.826 
-0.77 -0.23 -3.9963 4.32309 0.00916664 0.00873395 -9.03461e-05 0.00896342 1.58383e-07 271.767 
-0.85 -0.21 -2.76588 5.05867 0.00914291 0.00870081 -9.05904e-05 0.00893488 1.57793e-07 271.914 
-0.93 -0.19 -0.949955 5.28526 0.00911368 0.00869149 -0.000121485 0.00891974 1.577e-07 271.614 
-0.75 -0.23 -4.42835 3.9347 0.00917207 0.0087459 -8.86591e-05 0.0089724 1.5838e-07 272.044 
-0.83 -0.21 -3.20421 4.65906 0.00916112 0.00871278 -9.29172e-05 0.00894664 1.57935e-07 272.027 
-0.91 -0.19 -1.49882 5.2773 0.00911539 0.00866973 -0.000122529 0.00890637 1.5743e-07 271.67 
-0.81 -0.21 -3.45936 4.70614 0.00915664 0.00871086 -8.41983e-05 0.00895123 1.58272e-07 271.587 
-0.89 -0.19 -1.90753 5.67459 0.00912033 0.00868322 -0.000113787 0.00891563 1.57509e-07 271.817 
-0.79 -0.21 -3.76311 4.93635 0.00914674 0.00870896 -9.33144e-05 0.00894585 1.58158e-07 271.62 
-0.87 -0.19 -2.30379 5.41489 0.00912179 0.00868319 -0.000105038 0.00891713 1.57655e-07 271.611 
-0.77 -0.21 -4.13831 4.81185 0.00916183 0.0087369 -9.35189e-05 0.00895844 1.58322e-07 271.721 
-0.85 -0.19 -2.469 5.45417 0.00912881 0.00868887 -0.0001114 0.00892471 1.57791e-07 271.607 
-0.75 -0.21 -4.68403 4.39531 0.00916795 0.00874287 -9.67059e-05 0.00896975 1.58406e-07 271.918 
-0.83 -0.19 -2.819 5.14629 0.00912507 0.00870834 -0.000100804 0.00893183 1.57781e-07 271.842 
-0.81 -0.19 -3.27486 5.11618 0.00914561 0.00869908 -9.7806e-05 0.00893465 1.58002e-07 271.547 
-0.79 -0.19 -3.8275 5.12622 0.00916567 0.0087294 -9.43056e-05 0.00896441 1.58395e-07 271.776 
-0.77 -0.19 -4.03798 5.28963 0.00916813 0.00873754 -0.000105 0.00896512 1.58474e-07 271.661 
-0.99 -0.33 -0.129047 2.46153 0.00909623 0.00877075 -8.25064e-05 0.00894658 1.57932e-07 272.03 
-0.97 -0.33 -0.382282 2.51023 0.00911238 0.00874946 -8.32856e-05 0.00894383 1.57949e-07 271.917 
-0.91 -0.33 -1.4948 2.84056 0.00915277 0.00873971 -6.33265e-05 0.00894525 1.57841e-07 272.148 
-0.99 -0.31 -0.131974 2.82325 0.00908803 0.00876188 -9.32451e-05 0.00893613 1.57773e-07 271.987 
-0.97 -0.31 -0.339879 2.65598 0.00909806 0.00874834 -8.75711e-05 0.00893434 1.57882e-07 271.743 
-0.87 -0.33 -2.12215 2.69628 0.00914388 0.0087259 -6.25063e-05 0.0089416 1.57865e-07 271.995 
-0.95 -0.31 -0.905366 3.11569 0.0091016 0.00872044 -8.53559e-05 0.00892098 1.57482e-07 272.027 
-0.85 -0.33 -2.24025 2.53092 0.00914211 0.00871082 -5.39053e-05 0.00893928 1.57717e-07 272.179 
-0.93 -0.31 -1.25266 3.12087 0.00911988 0.00872962 -8.68697e-05 0.00893589 1.57713e-07 272.082 
-0.91 -0.31 -1.48577 2.98621 0.00913654 0.00872002 -7.33135e-05 0.00894096 1.57678e-07 272.297 
-0.99 -0.29 -0.127055 3.0528 0.00908093 0.00876346 -0.000100829 0.00893721 1.57786e-07 271.997 
-0.81 -0.33 -3.24926 2.50957 0.00916039 0.00872187 -4.83615e-05 0.0089578 1.58074e-07 272.127 
-0.89 -0.31 -1.71063 3.099 0.00914564 0.008716 -5.81093e-05 0.00894359 1.57846e-07 272.088 
-0.97 -0.29 -0.505425 3.07424 0.00908513 0.00873121 -9.58717e-05 0.00891987 1.5747e-07 272.014 
-0.87 -0.31 -2.18719 2.99959 0.0091509 0.00872478 -6.24028e-05 0.00894301 1.57956e-07 271.88 
-0.95 -0.29 -0.640056 3.45544 0.00909992 0.00872158 -9.60216e-05 0.00892475 1.57468e-07 272.166 
-0.85 -0.31 -2.71958 2.82814 0.00915062 0.00870235 -5.94517e-05 0.00893758 1.57835e-07 271.924 
-0.93 -0.29 -0.997684 3.19146 0.00910611 0.0087285 -9.44164e-05 0.00892476 1.57466e-07 272.171 
-0.83 -0.31 -2.81538 3.14368 0.00915296 0.00872285 -5.198e-05 0.00895627 1.58046e-07 272.129 
-0.91 -0.29 -1.19315 3.50321 0.00909714 0.00870058 -8.11138e-05 0.00891065 1.57347e-07 271.945 
-0.99 -0.27 -0.106948 3.33371 0.00908717 0.00875586 -0.000111598 0.00894052 1.57931e-07 271.848 
-0.81 -0.31 -3.28639 2.9464 0.00915657 0.00871756 -5.4761e-05 0.00895582 1.58053e-07 272.103 
-0.89 -0.29 -1.57862 3.44922 0.00911336 0.00871036 -7.67926e-05 0.00892497 1.57591e-07 271.96 
-0.97 -0.27 -0.467601 3.44298 0.0090916 0.00872904 -0.000104187 0.0089251 1.57504e-07 272.114 
-0.79 -0.31 -3.6574 2.81274 0.00916177 0.00872852 -5.04439e-05 0.00895425 1.58156e-07 271.878 
-0.87 -0.29 -2.07552 3.5403 0.0091262 0.00871659 -5.8372e-05 0.00893248 1.57771e-07 271.879 
-0.95 -0.27 -0.723719 3.63242 0.00909472 0.00872268 -0.000102548 0.00892289 1.57473e-07 272.102 
-0.77 -0.31 -4.03983 2.98863 0.00916507 0.00874225 -4.86934e-05 0.00895489 1.58297e-07 271.655 
-0.85 -0.29 -2.65955 3.29044 0.00913445 0.00870506 -6.13533e-05 0.00893192 1.57825e-07 271.769 
-0.93 -0.27 -0.946994 3.60168 0.00910143 0.00871216 -9.46907e-05 0.00891382 1.57217e-07 272.267 
-0.95 -0.33 -0.609066 2.52128 0.00912159 0.00872517 -7.4383e-05 0.00893277 1.57728e-07 271.961 
-0.93 -0.33 -1.04902 2.735 0.00913414 0.00873149 -6.30937e-05 0.00893739 1.57713e-07 272.129 
-0.89 -0.33 -2.01199 2.71324 0.00914945 0.00871455 -5.76616e-05 0.00893536 1.5768e-07 272.123 
-0.83 -0.33 -2.79933 2.73141 0.00915182 0.0087177 -5.17069e-05 0.00895229 1.57966e-07 272.145 
-0.75 -0.31 -4.28414 2.77772 0.00917421 0.00876066 -4.45449e-05 0.00898353 1.58531e-07 272.121 
-0.75 -0.27 -4.46734 3.57938 0.00919712 0.00876269 -6.15782e-05 0.00899006 1.58749e-07 271.945 
-0.75 -0.25 -4.65569 3.75602 0.00917518 0.00875715 -7.09038e-05 0.00897143 1.5846e-07 271.878 
-0.75 -0.19 -4.43254 4.89886 0.00916258 0.00873567 -9.93443e-05 0.00896393 1.58548e-07 271.498 
-0.79 -0.33 -3.64332 2.46426 0.00915187 0.00873267 -4.99596e-05 0.00895524 1.58169e-07 271.886 
-0.75 -0.33 -4.27788 2.52566 0.00916799 0.00876713 -2.97587e-05 0.00897726 1.58499e-07 271.987 
-0.81 -0.17 -3.57421 5.70169 0.00912852 0.0086905 -0.000108674 0.00891904 1.577e-07 271.593 
-0.79 -0.17 -3.9357 5.64359 0.00913693 0.00873531 -0.000109213 0.00895369 1.58185e-07 271.811 
-0.75 -0.17 -4.37652 5.46484 0.00916611 0.00874078 -0.000107564 0.0089649 1.58418e-07 271.751 
-0.73 -0.31 -4.80221 2.82534 0.00919076 0.00877944 -4.70084e-05 0.00899789 1.58752e-07 272.177 
-0.73 -0.29 -4.6524 3.22536 0.00918481 0.00877366 -5.16199e-05 0.00898945 1.58807e-07 271.828 
-0.73 -0.27 -5.00606 3.37012 0.00920622 0.00878456 -6.58424e-05 0.00900689 1.59011e-07 272.006 
-0.73 -0.25 -4.68588 3.78819 0.00918583 0.00877669 -6.62258e-05 0.0089899 1.58871e-07 271.732 
-0.73 -0.23 -4.84032 4.05413 0.00918106 0.00877275 -7.63718e-05 0.00898712 1.58726e-07 271.897 
-0.73 -0.21 -5.03009 4.36722 0.00918333 0.0087702 -9.58405e-05 0.00898277 1.58606e-07 271.97 
-0.73 -0.19 -4.85633 4.7928 0.00916589 0.00877742 -0.000102019 0.0089778 1.58665e-07 271.719 
-0.79 -0.05 -3.22396 7.62217 0.00905425 0.0087142 -0.000153041 0.00889997 1.57498e-07 271.359 
-0.87 -0.03 -2.16412 8.32145 0.00899928 0.00862533 -0.000180125 0.00883092 1.56375e-07 271.187 
-0.83 -0.05 -2.7167 7.99956 0.0090315 0.00867399 -0.000152335 0.00887286 1.56966e-07 271.449 
-0.91 -0.03 -1.70094 8.14536 0.00899506 0.00862021 -0.000189174 0.00882962 1.56159e-07 271.523 
-0.81 -0.05 -2.93451 7.78969 0.00904417 0.00869729 -0.000138149 0.0088889 1.57336e-07 271.301 
-0.89 -0.03 -1.79703 8.35009 0.00899179 0.00862516 -0.000181295 0.00882863 1.56254e-07 271.327 
-0.77 -0.05 -3.57892 7.32567 0.00906744 0.00874035 -0.000153145 0.0089229 1.57708e-07 271.696 
-0.85 -0.03 -2.52298 8.10914 0.0090033 0.00864957 -0.000175662 0.00885157 1.56636e-07 271.368 
-0.75 -0.05 -3.85419 7.15644 0.00907705 0.00876216 -0.000163046 0.00892804 1.57788e-07 271.714 
-0.83 -0.03 -2.73093 8.37514 0.00901972 0.00866406 -0.000166095 0.00886428 1.56954e-07 271.207 
-0.81 -0.03 -3.12458 7.96281 0.00903392 0.00869506 -0.00015766 0.00887896 1.57184e-07 271.26 
-0.79 -0.03 -3.17403 8.09556 0.00905145 0.00871883 -0.000155991 0.00890065 1.57517e-07 271.346 
-0.77 -0.03 -3.53719 7.53549 0.00906025 0.00874603 -0.000163402 0.00891434 1.57649e-07 271.536 
-0.95 -0.17 -0.752096 5.0863 0.00908187 0.00869803 -0.000144419 0.00889882 1.57347e-07 271.584 
-0.99 -0.15 -0.16184 4.84859 0.00903731 0.00870224 -0.000176874 0.00888698 1.5712e-07 271.615 
-0.89 -0.17 -1.92837 5.87915 0.00910882 0.00866926 -0.00011926 0.00890546 1.57335e-07 271.808 
-0.97 -0.15 -0.363927 5.41251 0.00905964 0.00870457 -0.000162451 0.008892 1.5725e-07 271.544 
-0.95 -0.15 -0.847416 5.64141 0.00906756 0.00867759 -0.00015206 0.00888295 1.57129e-07 271.476 
-0.93 -0.15 -1.17667 5.96039 0.00907646 0.00867157 -0.000137242 0.00888986 1.57262e-07 271.456 
-0.83 -0.17 -2.99075 5.60482 0.00913096 0.00871509 -0.000102824 0.00893594 1.57825e-07 271.891 
-0.91 -0.15 -1.45135 6.24843 0.00909169 0.00867468 -0.000135441 0.00890106 1.57343e-07 271.66 
-0.99 -0.13 -0.271841 5.20953 0.00904644 0.00870205 -0.000193085 0.00888616 1.57194e-07 271.461 
-0.89 -0.15 -1.65926 6.18572 0.0090885 0.00865518 -0.000126993 0.00888841 1.57221e-07 271.484 
-0.97 -0.13 -0.516514 5.85298 0.00905674 0.00868315 -0.000171419 0.00888253 1.57137e-07 271.448 
-0.87 -0.15 -2.34527 6.00806 0.00909476 0.00868318 -0.000121332 0.00891103 1.57402e-07 271.862 
-0.95 -0.13 -0.949816 6.03557 0.00906885 0.00866457 -0.000163597 0.0088805 1.57199e-07 271.281 
-0.77 -0.17 -4.18999 5.25105 0.00915336 0.0087305 -0.000108181 0.00896018 1.58401e-07 271.638 
-0.85 -0.15 -2.65608 6.28571 0.00910415 0.00868007 -0.000112163 0.0089067 1.57502e-07 271.557 
-0.93 -0.13 -1.2174 6.15856 0.0090814 0.00866978 -0.000153861 0.00889104 1.57198e-07 271.604 
-0.83 -0.15 -3.00626 6.0627 0.00911981 0.00870411 -0.000117736 0.008926 1.57822e-07 271.593 
-0.91 -0.13 -1.65212 6.62925 0.00907947 0.00865589 -0.000140184 0.00889152 1.57293e-07 271.455 
-0.99 -0.11 -0.122738 5.62491 0.00903826 0.00868779 -0.000186342 0.00887678 1.56904e-07 271.677 
-0.81 -0.15 -3.34927 6.16882 0.00912898 0.00870475 -0.000113687 0.00893398 1.57797e-07 271.88 
-0.89 -0.13 -1.94359 6.45089 0.00909177 0.00865831 -0.000132394 0.00889351 1.57447e-07 271.25 
-0.97 -0.11 -0.566957 6.17188 0.00903237 0.00866963 -0.000186312 0.00886939 1.56836e-07 271.569 
-0.79 -0.15 -3.86246 5.86484 0.00913536 0.00872914 -0.000121041 0.00895194 1.58127e-07 271.857 
-0.87 -0.13 -2.41304 6.67193 0.0091006 0.00866502 -0.000127872 0.00890313 1.57564e-07 271.341 
-0.95 -0.11 -0.839577 6.38035 0.00904411 0.0086574 -0.000173174 0.00886882 1.56989e-07 271.287 
-0.77 -0.15 -4.2404 5.64555 0.00914233 0.00873337 -0.000117508 0.00895408 1.58397e-07 271.458 
-0.85 -0.13 -2.74602 6.32639 0.00911933 0.00868854 -0.000126281 0.0089159 1.57619e-07 271.635 
-0.93 -0.11 -1.2587 6.55524 0.00905785 0.00865585 -0.000163215 0.00887456 1.57135e-07 271.208 
-0.75 -0.15 -4.59687 5.78023 0.00914709 0.00874017 -0.000114152 0.00895724 1.58476e-07 271.42 
-0.83 -0.13 -2.9636 6.5626 0.00912625 0.00869763 -0.000126512 0.00892694 1.57593e-07 272.017 
-0.91 -0.11 -1.48914 6.94255 0.00906689 0.00864464 -0.000151161 0.00887402 1.57089e-07 271.272 
-0.99 -0.09 -0.0941343 5.93921 0.00899718 0.00868117 -0.000202233 0.00885305 1.56644e-07 271.399 
-0.81 -0.13 -3.46058 6.51117 0.0091177 0.00870527 -0.000117293 0.00892884 1.58032e-07 271.319 
-0.89 -0.11 -1.86414 6.95383 0.00908393 0.0086541 -0.000142367 0.00888333 1.5749e-07 270.864 
-0.97 -0.09 -0.470229 6.68689 0.00901712 0.00865969 -0.000191471 0.00886276 1.56821e-07 271.39 
-0.79 -0.13 -3.60895 6.39894 0.0091281 0.00872892 -0.000126001 0.00894702 1.58106e-07 271.745 
-0.87 -0.11 -2.20673 7.04836 0.00909664 0.0086599 -0.000144875 0.00889897 1.57552e-07 271.235 
-0.95 -0.09 -0.929011 6.71698 0.00902974 0.00865501 -0.000180545 0.00886928 1.56935e-07 271.393 
-0.77 -0.13 -4.09219 6.05337 0.00912909 0.00872928 -0.00012015 0.00894324 1.58119e-07 271.608 
-0.85 -0.11 -2.60752 6.7239 0.00910141 0.008687 -0.000133084 0.0089066 1.57661e-07 271.281 
-0.93 -0.09 -1.20019 6.75597 0.00903616 0.00863936 -0.00017885 0.00885704 1.56986e-07 270.93 
-0.83 -0.11 -3.00194 7.02982 0.00909797 0.00868377 -0.000123379 0.00890895 1.57607e-07 271.444 
-0.91 -0.09 -1.42885 7.33764 0.00904472 0.00863324 -0.00015851 0.00885997 1.56906e-07 271.158 
-0.99 -0.07 -0.328459 6.27319 0.00900134 0.00867635 -0.000204323 0.00885373 1.56562e-07 271.562 
-0.81 -0.11 -3.35825 6.62877 0.00911968 0.0087173 -0.000127465 0.00893282 1.57818e-07 271.808 
-0.89 -0.09 -1.89424 7.28868 0.00905717 0.00865248 -0.000159404 0.0088746 1.57221e-07 271.061 
-0.97 -0.07 -0.523443 6.99193 0.00899039 0.00864665 -0.000203941 0.00883996 1.5643e-07 271.369 
-0.79 -0.11 -3.49135 6.72921 0.00912392 0.00872285 -0.000128792 0.00894305 1.58187e-07 271.484 
-0.87 -0.09 -2.12203 7.41455 0.00907101 0.0086548 -0.000154833 0.00888588 1.5748e-07 270.961 
-0.95 -0.07 -0.719529 7.06056 0.00899576 0.00865211 -0.000192168 0.00884722 1.5648e-07 271.505 
-0.77 -0.11 -3.99518 6.31696 0.00912631 0.00872069 -0.000126875 0.00894068 1.58041e-07 271.663 
-0.85 -0.09 -2.55536 7.19767 0.00907569 0.00867024 -0.000144557 0.00888854 1.5737e-07 271.231 
-0.93 -0.07 -1.17881 7.24571 0.0090029 0.00862541 -0.00018121 0.00884202 1.56644e-07 271.061 
-0.75 -0.11 -4.47389 6.21782 0.00913758 0.0087503 -0.000126814 0.00895218 1.58348e-07 271.485 
-0.83 -0.09 -2.88369 7.15185 0.00909282 0.00868627 -0.000136491 0.00890787 1.57577e-07 271.464 
-0.91 -0.07 -1.67821 7.5979 0.00902366 0.00862552 -0.000179517 0.00884958 1.56606e-07 271.359 
-0.99 -0.05 0.0120038 6.62484 0.00898238 0.00866565 -0.000216563 0.00883952 1.56398e-07 271.411 
-0.81 -0.09 -3.19855 7.09827 0.00909918 0.00871931 -0.000139547 0.00892239 1.57893e-07 271.362 
-0.89 -0.07 -1.92801 7.58063 0.0090368 0.00865055 -0.000174537 0.00886376 1.56953e-07 271.194 
-0.97 -0.05 -0.504947 7.18262 0.00900911 0.00864917 -0.000207209 0.00884826 1.56608e-07 271.315 
-0.79 -0.09 -3.65587 6.94597 0.00910082 0.00871922 -0.000127128 0.00892477 1.57837e-07 271.53 
-0.87 -0.07 -2.31659 7.80896 0.0090366 0.00863869 -0.000156945 0.00886006 1.56828e-07 271.297 
-0.95 -0.05 -0.761328 7.43028 0.00900671 0.00863296 -0.000196208 0.00884002 1.56373e-07 271.469 
-0.77 -0.09 -3.84816 6.8864 0.00910003 0.00872106 -0.000125038 0.00893135 1.57946e-07 271.543 
-0.85 -0.07 -2.53889 7.53564 0.00904661 0.00865987 -0.000150245 0.00887693 1.56935e-07 271.627 
-0.93 -0.05 -1.24866 7.77404 0.00900422 0.00862247 -0.000184079 0.00883698 1.56437e-07 271.265 
-0.75 -0.09 -4.14087 6.55577 0.0090987 0.00875112 -0.000136677 0.00894165 1.58075e-07 271.634 
-0.83 -0.07 -2.88656 7.5725 0.00905683 0.00868952 -0.000147027 0.00888696 1.57194e-07 271.486 
-0.91 -0.05 -1.45232 7.94623 0.00900099 0.00862345 -0.000186181 0.00883469 1.56403e-07 271.254 
-0.99 -0.03 -0.188262 6.95358 0.00895395 0.00865532 -0.000231627 0.00882002 1.56036e-07 271.441 
-0.81 -0.07 -3.30636 7.63361 0.00905641 0.00870615 -0.000146034 0.00889905 1.57438e-07 271.434 
-0.89 -0.05 -1.8065 7.98436 0.00900337 0.0086345 -0.000177936 0.00884347 1.56619e-07 271.15 
-0.97 -0.03 -0.40246 7.56494 0.00895799 0.00862771 -0.000213526 0.00881111 1.5603e-07 271.177 