ITEM: TIMESTEP
1082000
ITEM: NUMBER OF CELLS
5000
ITEM: BOX BOUNDS ss ss pp
-1 1
-0.5 0.5
-0.5 0.5
ITEM: CELLS xc yc f_U[*] f_V[*] f_Tau[1] f_Tau[2] f_Tau[3] f_Press[*] f_Mrho[*] f_Ttra[*] 
-0.99 -0.49 -0.222911 0.290273 0.00899443 0.00875218 -2.71084e-05 0.00888637 1.56734e-07 272.265 
-0.97 -0.49 -0.589656 0.06807 0.00899158 0.00875319 -3.22477e-05 0.00888556 1.56627e-07 272.426 
-0.95 -0.49 -0.732533 0.0682602 0.00899291 0.00875401 -3.11378e-05 0.00888264 1.56612e-07 272.362 
-0.93 -0.49 -0.947792 0.122847 0.008999 0.00874693 -2.22352e-05 0.00888223 1.56671e-07 272.247 
-0.91 -0.49 -1.18577 0.0808725 0.00900199 0.00872609 -2.24531e-05 0.00886882 1.56459e-07 272.204 
-0.99 -0.47 -0.160908 0.554724 0.0090188 0.008772 -1.961e-05 0.00890529 1.57052e-07 272.292 
-0.89 -0.49 -1.53938 0.210218 0.00901643 0.00874298 -2.2436e-05 0.00888301 1.56742e-07 272.147 
-0.97 -0.47 -0.405091 0.384992 0.0090195 0.00875055 -3.31087e-05 0.00889994 1.56868e-07 272.447 
-0.87 -0.49 -1.74571 0.0545233 0.00903365 0.00875637 -1.83623e-05 0.00889821 1.57001e-07 272.164 
-0.95 -0.47 -0.695169 0.325597 0.00902468 0.00875468 -3.28798e-05 0.00889914 1.56882e-07 272.399 
-0.85 -0.49 -1.99999 0.114924 0.00904048 0.00875565 -1.09633e-05 0.0089016 1.56928e-07 272.394 
-0.93 -0.47 -0.910595 0.300331 0.00902872 0.0087428 -3.28924e-05 0.00889317 1.56825e-07 272.316 
-0.83 -0.49 -2.0939 0.00202805 0.00904653 0.00876362 8.36275e-07 0.00891086 1.5716e-07 272.275 
-0.91 -0.47 -1.24668 0.534908 0.00904115 0.00873128 -3.03443e-05 0.00889235 1.56891e-07 272.176 
-0.99 -0.45 -0.114461 0.919106 0.00905303 0.00877442 -3.03538e-05 0.00892395 1.57342e-07 272.36 
-0.81 -0.49 -2.27076 0.185771 0.00905859 0.00877236 1.20435e-05 0.00892319 1.57375e-07 272.28 
-0.89 -0.47 -1.61729 0.459482 0.00904575 0.00874028 -3.27672e-05 0.00889247 1.56939e-07 272.096 
-0.97 -0.45 -0.42391 0.652138 0.00905448 0.00876051 -3.36744e-05 0.00892298 1.57313e-07 272.381 
-0.79 -0.49 -2.53721 0.0814535 0.00906765 0.00877989 1.40361e-05 0.00893356 1.5751e-07 272.362 
-0.87 -0.47 -1.9251 0.288769 0.00904901 0.0087465 -2.89903e-05 0.00890481 1.57148e-07 272.112 
-0.95 -0.45 -0.747731 0.59455 0.00905585 0.00875261 -3.59643e-05 0.00891474 1.57129e-07 272.448 
-0.77 -0.49 -2.57628 -0.0301355 0.00907035 0.00878835 2.39126e-05 0.00893867 1.57556e-07 272.438 
-0.85 -0.47 -2.01568 0.370185 0.00905672 0.00874852 -1.50543e-05 0.00891196 1.57147e-07 272.331 
-0.93 -0.45 -1.14566 0.547909 0.00906227 0.00874124 -4.17624e-05 0.00890837 1.57156e-07 272.206 
-0.83 -0.47 -2.43551 0.206242 0.00906441 0.0087554 -9.87324e-06 0.00891775 1.57289e-07 272.262 
-0.91 -0.45 -1.3015 0.739667 0.00906051 0.0087347 -3.7982e-05 0.00889847 1.57096e-07 272.007 
-0.99 -0.43 -0.209329 1.15452 0.00905711 0.00877161 -3.71451e-05 0.00892914 1.57661e-07 271.967 
-0.81 -0.47 -2.61818 0.426133 0.00907494 0.00876233 -1.9081e-06 0.00893101 1.57439e-07 272.408 
-0.89 -0.45 -1.57817 0.859797 0.00907231 0.00873456 -3.74423e-05 0.00890431 1.57115e-07 272.153 
-0.97 -0.43 -0.450544 0.951721 0.00907256 0.00876844 -3.95104e-05 0.00893445 1.57619e-07 272.202 
-0.79 -0.47 -2.9251 0.34038 0.00908608 0.00877231 9.42145e-06 0.00894284 1.57687e-07 272.338 
-0.87 -0.45 -1.99011 0.620813 0.00907517 0.00874051 -2.50523e-05 0.0089106 1.57185e-07 272.224 
-0.95 -0.43 -0.790648 0.946031 0.0090794 0.00875202 -4.35878e-05 0.00892381 1.57476e-07 272.123 
-0.77 -0.47 -3.16257 0.0505661 0.00909577 0.00878085 1.15927e-05 0.00894852 1.57847e-07 272.236 
-0.85 -0.45 -2.3112 0.520081 0.00907892 0.00873849 -2.35968e-05 0.00891816 1.57389e-07 272.102 
-0.93 -0.43 -0.997791 0.926622 0.00908157 0.00874163 -3.82533e-05 0.0089155 1.57268e-07 272.229 
-0.75 -0.47 -3.2737 0.397455 0.00910661 0.00879393 1.86809e-05 0.0089542 1.57798e-07 272.493 
-0.83 -0.45 -2.52311 0.574527 0.00909099 0.00875618 -2.00175e-05 0.00893039 1.57576e-07 272.151 
-0.91 -0.43 -1.47612 0.988874 0.00908662 0.00873802 -4.3037e-05 0.0089148 1.57288e-07 272.173 
-0.99 -0.41 -0.126566 1.47784 0.00908041 0.00877654 -4.76249e-05 0.00893986 1.57755e-07 272.132 
-0.81 -0.45 -2.88319 0.739586 0.00909329 0.00874481 -1.12937e-05 0.00893041 1.57554e-07 272.189 
-0.89 -0.43 -1.71683 1.14721 0.00908318 0.0087281 -4.10258e-05 0.00891241 1.57294e-07 272.091 
-0.97 -0.41 -0.399626 1.18629 0.00908437 0.00876598 -4.99056e-05 0.00893378 1.57578e-07 272.251 
-0.79 -0.45 -2.98459 0.485729 0.0091025 0.00876507 1.96297e-06 0.00894274 1.57777e-07 272.181 
-0.87 -0.43 -1.9841 0.988213 0.00908816 0.0087295 -3.7049e-05 0.00891725 1.57338e-07 272.162 
-0.95 -0.41 -0.627498 1.27714 0.00908923 0.00875653 -4.53359e-05 0.00893356 1.57559e-07 272.278 
-0.77 -0.45 -3.37415 0.425854 0.00911029 0.00877889 6.13407e-06 0.0089496 1.57847e-07 272.268 
-0.85 -0.43 -2.35987 0.861883 0.00910303 0.00873999 -3.04731e-05 0.00893071 1.57614e-07 272.095 
-0.93 -0.41 -1.21469 1.3342 0.00909222 0.00873539 -4.65435e-05 0.00892661 1.57458e-07 272.24 
-0.75 -0.45 -3.65551 0.505715 0.00911455 0.00878519 8.87106e-06 0.0089564 1.58061e-07 272.108 
-0.83 -0.43 -2.67469 0.842378 0.00910493 0.00874738 -2.07438e-05 0.00893409 1.57599e-07 272.224 
-0.91 -0.41 -1.39003 1.29613 0.00909844 0.00873803 -4.17824e-05 0.00892762 1.57569e-07 272.079 
-0.99 -0.39 -0.124542 1.73785 0.00908109 0.00877925 -5.23397e-05 0.00894087 1.57858e-07 271.983 
-0.81 -0.43 -2.99503 0.958631 0.00911184 0.00873598 -1.80003e-05 0.00893477 1.57649e-07 272.159 
-0.89 -0.41 -1.68502 1.43529 0.00909947 0.0087294 -4.60944e-05 0.00892478 1.57383e-07 272.314 
-0.97 -0.39 -0.507065 1.48349 0.00909418 0.00876625 -5.2791e-05 0.0089369 1.57678e-07 272.173 
-0.79 -0.43 -3.36742 0.797801 0.00911816 0.00875625 -8.73889e-06 0.00894843 1.57917e-07 272.112 
-0.87 -0.41 -2.08008 1.36055 0.00910539 0.00872749 -3.9351e-05 0.00892839 1.57454e-07 272.301 
-0.95 -0.39 -0.870559 1.59946 0.00909823 0.0087535 -5.34185e-05 0.00893213 1.5751e-07 272.319 
-0.77 -0.43 -3.62223 0.771865 0.00912602 0.00877598 5.20495e-07 0.0089594 1.58109e-07 272.116 
-0.85 -0.41 -2.55467 1.17593 0.00910413 0.00873309 -3.77578e-05 0.00892832 1.57606e-07 272.036 
-0.93 -0.39 -0.888428 1.59957 0.0091045 0.00873547 -4.75205e-05 0.00893098 1.57562e-07 272.194 
-0.83 -0.41 -2.76559 1.17069 0.00911373 0.00873493 -3.04102e-05 0.00892804 1.57576e-07 272.081 
-0.91 -0.39 -1.34397 1.74597 0.00910974 0.00873545 -4.90756e-05 0.00893553 1.57663e-07 272.158 
-0.99 -0.37 -0.0173057 2.01464 0.00908709 0.00878454 -6.43374e-05 0.00894661 1.57964e-07 271.976 
-0.81 -0.41 -3.00648 1.29787 0.00911875 0.00873052 -2.04126e-05 0.0089322 1.57722e-07 271.955 
-0.89 -0.39 -1.68691 1.69286 0.00911607 0.00873348 -4.79741e-05 0.00893928 1.57664e-07 272.27 
-0.97 -0.37 -0.435435 1.94453 0.00909493 0.00876042 -6.17939e-05 0.00893715 1.57753e-07 272.052 
-0.79 -0.41 -3.35337 1.09383 0.00913317 0.00875195 -2.05727e-05 0.00895265 1.58018e-07 272.067 
-0.87 -0.39 -1.94564 1.73941 0.00911808 0.00871786 -4.55022e-05 0.00892849 1.57662e-07 271.945 
-0.95 -0.37 -0.801394 1.79671 0.00910229 0.00874871 -5.52054e-05 0.00893469 1.57703e-07 272.063 
-0.77 -0.41 -3.74766 1.12384 0.00914177 0.00877305 -1.36825e-05 0.00896893 1.58274e-07 272.12 
-0.85 -0.39 -2.32984 1.63184 0.00912821 0.00873333 -4.14168e-05 0.00894041 1.57872e-07 271.945 
-0.93 -0.37 -1.21404 1.92352 0.0091072 0.0087365 -5.74141e-05 0.00893397 1.57696e-07 272.054 
-0.75 -0.41 -4.00526 0.939235 0.00915286 0.00877926 -1.01642e-05 0.00897608 1.58358e-07 272.193 
-0.83 -0.39 -2.70956 1.47511 0.00912928 0.00872243 -3.75654e-05 0.00893252 1.57698e-07 272.006 
-0.91 -0.37 -1.46636 1.9895 0.00911784 0.00873312 -5.95906e-05 0.00893918 1.5768e-07 272.241 
-0.99 -0.35 -0.241284 2.24125 0.00909607 0.00878341 -7.43024e-05 0.00895314 1.5821e-07 271.752 
-0.81 -0.39 -3.07956 1.51782 0.00913785 0.00873291 -3.41183e-05 0.00894545 1.57812e-07 272.203 
-0.89 -0.37 -1.74778 1.99988 0.00912368 0.00872933 -5.11175e-05 0.00893706 1.57837e-07 271.904 
-0.97 -0.35 -0.427595 2.33609 0.00910204 0.00875291 -6.99284e-05 0.00893938 1.57839e-07 271.971 
-0.79 -0.39 -3.36983 1.49842 0.00914122 0.00874067 -2.65193e-05 0.0089515 1.58059e-07 271.961 
-0.87 -0.37 -2.12625 2.12755 0.00912496 0.00871586 -5.04564e-05 0.00893257 1.57697e-07 272.009 
-0.95 -0.35 -0.802889 2.14509 0.00911469 0.00874347 -6.5993e-05 0.00893815 1.57791e-07 272.016 
-0.77 -0.39 -3.78352 1.4554 0.00915106 0.00877276 -2.13796e-05 0.00897285 1.58361e-07 272.091 
-0.85 -0.37 -2.52164 2.05097 0.00912816 0.00872671 -4.98752e-05 0.0089354 1.57807e-07 271.906 
-0.93 -0.35 -1.18353 2.25692 0.00912433 0.00873931 -6.39388e-05 0.00894147 1.57833e-07 272.045 
-0.83 -0.37 -2.98296 1.78624 0.00913546 0.0087155 -4.07434e-05 0.00893226 1.57735e-07 271.935 
-0.91 -0.35 -1.55924 2.35693 0.00912429 0.00873233 -5.91167e-05 0.00893633 1.57684e-07 272.147 
-0.81 -0.37 -3.23979 1.7797 0.00914359 0.00872973 -3.43516e-05 0.00894699 1.57895e-07 272.107 
-0.89 -0.35 -1.92879 2.43602 0.00912441 0.00871967 -5.45298e-05 0.00893134 1.57725e-07 271.923 
-0.79 -0.37 -3.6429 1.89634 0.00914845 0.00873631 -3.33341e-05 0.00895801 1.58211e-07 271.897 
-0.87 -0.35 -2.30993 2.37933 0.00913096 0.00871744 -5.54402e-05 0.00893419 1.57765e-07 271.941 
-0.77 -0.37 -3.89748 1.93597 0.00915695 0.00876875 -2.94169e-05 0.00897152 1.58211e-07 272.307 
-0.85 -0.35 -2.60969 2.46148 0.00913803 0.00871873 -4.98399e-05 0.00893856 1.5787e-07 271.894 
-0.83 -0.35 -2.97099 2.15453 0.0091408 0.00871372 -4.88953e-05 0.00893592 1.5784e-07 271.865 
-0.81 -0.35 -3.39788 2.17156 0.00914788 0.00872583 -4.87056e-05 0.00895019 1.57973e-07 272.07 
-0.79 -0.35 -3.71447 2.24033 0.00916335 0.00873462 -4.37275e-05 0.0089596 1.58226e-07 271.92 
-0.77 -0.35 -3.93344 2.17645 0.00917393 0.00875589 -3.58637e-05 0.00897676 1.58315e-07 272.287 
-0.75 -0.35 -4.21724 2.21285 0.00918526 0.00876902 -2.88539e-05 0.00898604 1.5861e-07 272.062 
-0.75 -0.49 -2.77677 0.176967 0.00907814 0.00879373 2.72213e-05 0.00894009 1.57623e-07 272.366 
-0.75 -0.43 -3.87011 0.662256 0.00913643 0.00878102 -2.98561e-06 0.00896873 1.5818e-07 272.276 
-0.75 -0.39 -4.36006 1.33939 0.00915307 0.0087734 -1.92752e-05 0.00897441 1.58385e-07 272.096 
-0.75 -0.37 -4.21855 1.8343 0.00916161 0.00876992 -1.71226e-05 0.00897451 1.58358e-07 272.146 
-0.77 -0.33 -3.94477 2.41433 0.00916891 0.00874785 -4.8885e-05 0.0089671 1.58456e-07 271.753 
-0.73 -0.49 -3.05789 0.156454 0.00908589 0.00881174 2.58615e-05 0.00895617 1.57892e-07 272.39 
-0.73 -0.47 -3.38557 0.276538 0.00911232 0.00880366 2.36991e-05 0.00896825 1.58131e-07 272.346 
-0.73 -0.45 -3.82094 0.458904 0.00912765 0.00880433 1.31751e-05 0.00897396 1.58292e-07 272.243 
-0.73 -0.43 -4.21156 0.88789 0.00914573 0.00880259 4.21005e-07 0.00898302 1.5843e-07 272.28 
-0.73 -0.41 -4.34173 1.13371 0.00916091 0.00879812 -6.61313e-06 0.00898534 1.5861e-07 272.042 
-0.73 -0.39 -4.51224 1.41483 0.00915774 0.00878985 -7.73574e-06 0.0089769 1.58467e-07 272.031 
-0.73 -0.37 -4.81197 1.6488 0.00916783 0.00877777 -2.32731e-05 0.00897665 1.58503e-07 271.962 
-0.73 -0.35 -4.48964 1.95844 0.00918845 0.00878273 -2.67183e-05 0.00898902 1.58689e-07 272.017 
-0.81 -0.29 -3.35672 3.36691 0.00916095 0.00871901 -6.53091e-05 0.00894801 1.58094e-07 271.795 
-0.89 -0.27 -1.9155 3.83651 0.00912616 0.00869886 -8.68169e-05 0.00892967 1.57743e-07 271.841 
-0.97 -0.25 -0.456764 3.75724 0.00908927 0.00873005 -0.000111003 0.00892226 1.57772e-07 271.567 
-0.83 -0.29 -2.95009 3.35369 0.00915485 0.00871573 -6.8921e-05 0.00894539 1.57847e-07 272.141 
-0.91 -0.27 -1.46243 3.94892 0.00912492 0.00870654 -8.97415e-05 0.00893088 1.57769e-07 271.834 
-0.99 -0.25 -0.135764 3.77755 0.00908051 0.00875708 -0.00011866 0.00893439 1.57968e-07 271.598 
-0.79 -0.29 -3.65393 3.24933 0.00916689 0.00872381 -6.32892e-05 0.00895294 1.58166e-07 271.822 
-0.87 -0.27 -2.34797 3.95727 0.0091349 0.00870252 -7.89603e-05 0.00893553 1.57838e-07 271.856 
-0.95 -0.25 -0.82018 3.91679 0.00910474 0.00872071 -0.000104871 0.00892889 1.57793e-07 271.732 
-0.77 -0.29 -4.04725 3.21444 0.00917871 0.00873723 -5.77166e-05 0.00896713 1.58311e-07 272.002 
-0.85 -0.27 -2.64239 3.79838 0.00914811 0.00871594 -7.66516e-05 0.00894605 1.57961e-07 271.964 
-0.93 -0.25 -1.12055 4.08748 0.00911064 0.00870894 -0.00010198 0.00892429 1.57649e-07 271.84 
-0.75 -0.29 -4.56344 3.15677 0.00918784 0.00875717 -5.66191e-05 0.00898362 1.58605e-07 271.997 
-0.83 -0.27 -3.09962 3.68694 0.00915638 0.008718 -7.17546e-05 0.00894834 1.57942e-07 272.067 
-0.91 -0.25 -1.46398 4.224 0.00911631 0.0086969 -9.70584e-05 0.00892083 1.57609e-07 271.804 
-0.99 -0.23 -0.0441673 3.95601 0.00906966 0.00875352 -0.000127385 0.00892494 1.5776e-07 271.669 
-0.81 -0.27 -3.46302 3.72744 0.00916064 0.008715 -7.60657e-05 0.00894718 1.58036e-07 271.87 
-0.89 -0.25 -1.78461 4.22533 0.00912899 0.008699 -9.07736e-05 0.00893333 1.57734e-07 271.968 
-0.97 -0.23 -0.318768 4.13438 0.00908333 0.00873012 -0.000121456 0.00891995 1.57684e-07 271.648 
-0.79 -0.27 -3.90058 3.595 0.00917374 0.00871955 -6.91171e-05 0.0089508 1.58227e-07 271.651 
-0.87 -0.25 -2.10152 4.29374 0.00913745 0.00869652 -9.16963e-05 0.0089373 1.57907e-07 271.791 
-0.95 -0.23 -0.768123 4.34498 0.00908858 0.00871056 -0.000119013 0.00891169 1.57454e-07 271.792 
-0.77 -0.27 -4.26122 3.60949 0.00917471 0.0087359 -6.52235e-05 0.00896899 1.58456e-07 271.81 
-0.85 -0.25 -2.55446 4.20366 0.00914968 0.00871213 -8.89252e-05 0.00894612 1.57939e-07 272.004 
-0.93 -0.23 -1.17056 4.42712 0.00910775 0.00870491 -0.000110643 0.00891978 1.57527e-07 271.913 
-0.83 -0.25 -3.02042 4.15514 0.00915568 0.00870653 -8.06865e-05 0.00893784 1.57946e-07 271.74 
-0.91 -0.23 -1.52477 4.43615 0.00911836 0.00869131 -0.000102597 0.00892215 1.57556e-07 271.935 
-0.99 -0.21 -0.0610928 4.13556 0.00908523 0.00874532 -0.000136223 0.00892699 1.57781e-07 271.695 
-0.81 -0.25 -3.31547 4.09842 0.00916326 0.00872322 -7.58085e-05 0.00895154 1.58104e-07 271.884 
-0.89 -0.23 -1.89542 4.7518 0.00912462 0.00869711 -0.000104323 0.00892427 1.57605e-07 271.916 
-0.97 -0.21 -0.308162 4.48051 0.00909402 0.0087181 -0.000130844 0.00891512 1.5761e-07 271.628 
-0.79 -0.25 -3.77427 4.11104 0.00915742 0.00871011 -7.8198e-05 0.00894525 1.58151e-07 271.612 
-0.87 -0.23 -2.38958 4.61789 0.00913695 0.00869372 -0.000104991 0.00892736 1.57752e-07 271.756 
-0.95 -0.21 -0.621729 4.70612 0.00910151 0.00871216 -0.000125536 0.0089193 1.57646e-07 271.693 
-0.77 -0.25 -4.18456 3.85287 0.0091698 0.00873489 -7.64559e-05 0.00895886 1.58286e-07 271.795 
-0.85 -0.23 -2.66991 4.63441 0.00914042 0.00870469 -9.29978e-05 0.00893275 1.57795e-07 271.847 
-0.93 -0.21 -1.13055 4.88789 0.00910334 0.00869345 -0.00012343 0.00891382 1.57605e-07 271.597 
-0.83 -0.23 -2.99524 4.59508 0.00914243 0.00869863 -8.63421e-05 0.00893262 1.57813e-07 271.811 
-0.91 -0.21 -1.50831 4.77912 0.0091132 0.00868669 -0.000113925 0.00891592 1.57589e-07 271.689 
-0.99 -0.19 -0.216821 4.42503 0.00907408 0.00873424 -0.000150344 0.00891663 1.57547e-07 271.781 
-0.81 -0.23 -3.51409 4.39244 0.00915192 0.00871623 -8.26114e-05 0.00894603 1.57977e-07 271.937 
-0.89 -0.21 -1.88398 5.16973 0.00912958 0.0087016 -0.000111146 0.00893159 1.57742e-07 271.902 
-0.97 -0.19 -0.504536 4.7419 0.00908428 0.00870869 -0.00013731 0.00890549 1.5742e-07 271.661 
-0.79 -0.23 -3.6733 4.49244 0.00916389 0.0087182 -7.81563e-05 0.00895387 1.58106e-07 271.953 
-0.87 -0.21 -2.20396 5.05291 0.00913091 0.00868067 -0.0001077 0.00892131 1.57738e-07 271.596 
-0.95 -0.19 -0.815868 5.03042 0.00909719 0.00871108 -0.00013419 0.00891412 1.5757e-07 271.666 
-0.77 -0.23 -3.96595 4.2166 0.00916478 0.00873057 -8.67781e-05 0.00895311 1.5821e-07 271.751 
-0.85 -0.21 -2.74715 4.98388 0.0091375 0.00869543 -9.79444e-05 0.00892954 1.57759e-07 271.81 
-0.93 -0.19 -0.928844 5.2505 0.00910573 0.00868643 -0.000127252 0.00891206 1.57603e-07 271.546 
-0.75 -0.23 -4.4828 4.07379 0.00917445 0.00874351 -8.27155e-05 0.00896881 1.58479e-07 271.765 
-0.83 -0.21 -3.09718 4.81801 0.00915192 0.00869974 -9.43786e-05 0.00893815 1.57814e-07 271.977 
-0.91 -0.19 -1.33504 5.30176 0.00910898 0.00868259 -0.000124254 0.00890816 1.57459e-07 271.676 
-0.81 -0.21 -3.29667 4.76358 0.00915472 0.00870798 -8.86817e-05 0.00894917 1.58121e-07 271.783 
-0.89 -0.19 -1.89293 5.51244 0.00911452 0.00869294 -0.000115358 0.00891921 1.57577e-07 271.809 
-0.79 -0.21 -3.7033 4.7873 0.00915754 0.00871861 -8.84265e-05 0.00895441 1.58256e-07 271.71 
-0.87 -0.19 -2.38482 5.46718 0.00911827 0.00868204 -0.000109507 0.00891793 1.57657e-07 271.632 
-0.77 -0.21 -4.14999 4.68478 0.00916758 0.00873579 -9.0303e-05 0.00896244 1.58394e-07 271.718 
-0.85 -0.19 -2.66133 5.38806 0.00912097 0.00868421 -0.000108931 0.00891681 1.57616e-07 271.668 
-0.75 -0.21 -4.57809 4.57317 0.00916871 0.00874173 -9.26568e-05 0.00896687 1.584e-07 271.841 
-0.83 -0.19 -2.96843 5.12241 0.00911958 0.00869638 -0.000104367 0.00892414 1.5774e-07 271.677 
-0.81 -0.19 -3.35466 5.17992 0.00913688 0.00869816 -9.7693e-05 0.00893159 1.57879e-07 271.666 
-0.79 -0.19 -3.82151 5.1339 0.00915598 0.00872812 -9.80312e-05 0.00895803 1.58252e-07 271.828 
-0.77 -0.19 -4.1106 5.15442 0.00916823 0.00873239 -0.000100581 0.0089634 1.58394e-07 271.747 
-0.99 -0.33 -0.0589516 2.48094 0.0090996 0.00877908 -8.25414e-05 0.00894823 1.58019e-07 271.931 
-0.97 -0.33 -0.395594 2.61639 0.00911279 0.00875263 -8.15509e-05 0.00894399 1.57898e-07 272.011 
-0.91 -0.33 -1.53326 2.76664 0.0091396 0.00872304 -6.5471e-05 0.00893926 1.57683e-07 272.237 
-0.99 -0.31 -0.198202 2.8116 0.00909561 0.00877137 -9.65731e-05 0.00894126 1.5794e-07 271.855 
-0.97 -0.31 -0.414198 2.91684 0.00910216 0.00875208 -8.96976e-05 0.0089375 1.57948e-07 271.727 
-0.87 -0.33 -2.27858 2.79593 0.00915159 0.0087231 -5.66257e-05 0.00894856 1.57987e-07 271.996 
-0.95 -0.31 -0.792666 3.03635 0.00910934 0.0087298 -8.45953e-05 0.00893072 1.57695e-07 271.957 
-0.85 -0.33 -2.54625 2.71976 0.00914673 0.00871287 -5.51049e-05 0.00893955 1.57746e-07 272.138 
-0.93 -0.31 -1.15659 2.9777 0.00912226 0.00873231 -8.36548e-05 0.00894085 1.5777e-07 272.136 
-0.91 -0.31 -1.50859 3.03226 0.00913092 0.00871465 -6.93985e-05 0.0089398 1.57711e-07 272.205 
-0.99 -0.29 -0.149566 3.09224 0.00908751 0.0087694 -0.000103337 0.00894127 1.57972e-07 271.8 
-0.81 -0.33 -3.38829 2.56752 0.00915895 0.0087253 -5.34631e-05 0.00895127 1.58088e-07 271.905 
-0.89 -0.31 -1.81714 3.20651 0.00913753 0.00870989 -6.48833e-05 0.00893616 1.57823e-07 271.9 
-0.97 -0.29 -0.454913 3.16848 0.00909866 0.00874301 -9.84994e-05 0.00893141 1.57775e-07 271.839 
-0.87 -0.31 -2.27788 3.11566 0.00914405 0.00871623 -6.14909e-05 0.00893974 1.57905e-07 271.868 
-0.95 -0.29 -0.744093 3.41303 0.00910704 0.00872698 -9.47635e-05 0.0089296 1.57666e-07 271.972 
-0.85 -0.31 -2.59924 2.95768 0.00915395 0.00871414 -5.94345e-05 0.0089463 1.57975e-07 271.948 
-0.93 -0.29 -1.06485 3.28242 0.0091106 0.00872123 -8.71389e-05 0.00892678 1.57666e-07 271.885 
-0.83 -0.31 -2.90808 3.03063 0.00915978 0.0087178 -5.85898e-05 0.00895119 1.57969e-07 272.107 
-0.91 -0.29 -1.40906 3.49009 0.00911388 0.00870559 -8.06546e-05 0.00891989 1.57549e-07 271.878 
-0.99 -0.27 -0.153873 3.46294 0.00910111 0.00876211 -0.000107896 0.00894532 1.58152e-07 271.613 
-0.81 -0.31 -3.25939 2.9714 0.00916429 0.00871969 -5.97215e-05 0.00895834 1.58067e-07 272.155 
-0.89 -0.29 -1.76669 3.5171 0.00912553 0.00870761 -7.61023e-05 0.00892854 1.57665e-07 271.941 
-0.97 -0.27 -0.523604 3.44747 0.0091039 0.00873948 -0.000102491 0.00893701 1.57866e-07 271.854 
-0.79 -0.31 -3.7489 2.78996 0.00916965 0.00872983 -5.73052e-05 0.00896021 1.58261e-07 271.879 
-0.87 -0.29 -2.07169 3.54056 0.00913885 0.00871031 -6.68416e-05 0.00893838 1.57889e-07 271.855 
-0.95 -0.27 -0.687367 3.64647 0.00910568 0.00872208 -9.85376e-05 0.00892683 1.57625e-07 271.959 
-0.77 -0.31 -4.19923 2.84028 0.00917091 0.00874023 -5.13099e-05 0.00895808 1.58227e-07 271.873 
-0.85 -0.29 -2.60972 3.37713 0.00914626 0.0087136 -6.59871e-05 0.00894169 1.579e-07 271.937 
-0.93 -0.27 -1.08455 3.605 0.00911245 0.00871223 -9.22909e-05 0.00892311 1.57474e-07 272.106 
-0.95 -0.33 -0.723568 2.60514 0.00912023 0.00873319 -7.6778e-05 0.00893939 1.57861e-07 271.933 
-0.93 -0.33 -1.13919 2.62722 0.00913092 0.00873949 -6.88793e-05 0.00894282 1.57805e-07 272.134 
-0.89 -0.33 -1.99207 2.77417 0.00914774 0.00871291 -5.9502e-05 0.00893906 1.57806e-07 272.019 
-0.83 -0.33 -2.9285 2.61559 0.00915096 0.0087124 -5.50962e-05 0.00894568 1.57976e-07 271.927 
-0.75 -0.31 -4.52698 2.75178 0.00917408 0.00875376 -4.93843e-05 0.00897464 1.58467e-07 271.962 
-0.75 -0.27 -4.51273 3.65053 0.00918688 0.00875227 -6.71589e-05 0.00898054 1.5863e-07 271.862 
-0.75 -0.25 -4.36853 3.74662 0.00917742 0.00874976 -7.24862e-05 0.00897086 1.58503e-07 271.787 
-0.75 -0.19 -4.5034 4.99566 0.00917044 0.00873962 -9.23358e-05 0.00896775 1.58434e-07 271.811 
-0.79 -0.33 -3.60801 2.4421 0.00916036 0.00873177 -5.2538e-05 0.00895587 1.58227e-07 271.805 
-0.75 -0.33 -4.28047 2.51522 0.00917759 0.00875763 -4.11536e-05 0.00897484 1.58546e-07 271.833 
-0.81 -0.17 -3.50997 5.50568 0.00912873 0.00869597 -0.000114129 0.00892464 1.57788e-07 271.611 
-0.79 -0.17 -3.84739 5.60479 0.00914047 0.00872589 -0.000116244 0.00894977 1.58137e-07 271.775 
-0.75 -0.17 -4.42839 5.44197 0.00916787 0.00874182 -0.000104586 0.00896395 1.58305e-07 271.917 
-0.73 -0.31 -4.8665 2.90375 0.00919107 0.00877752 -5.0967e-05 0.00899624 1.58828e-07 271.996 
-0.73 -0.29 -4.79507 3.18734 0.00918712 0.00877443 -5.62971e-05 0.00899108 1.5882e-07 271.855 
-0.73 -0.27 -4.90351 3.31146 0.00919744 0.00877896 -6.65732e-05 0.00899874 1.58874e-07 271.994 
-0.73 -0.25 -4.61629 3.78298 0.00918163 0.00877165 -6.81876e-05 0.00898726 1.58791e-07 271.788 
-0.73 -0.23 -4.89352 4.1916 0.00918703 0.00877216 -7.61584e-05 0.00898863 1.58832e-07 271.759 
-0.73 -0.21 -4.86793 4.41798 0.0091791 0.00876485 -9.24785e-05 0.00898551 1.58658e-07 271.965 
-0.73 -0.19 -4.89761 4.71518 0.00917289 0.00877469 -9.87535e-05 0.00898107 1.58584e-07 271.955 
-0.79 -0.05 -3.40168 7.65399 0.00905852 0.00871928 -0.000150722 0.00890281 1.57397e-07 271.619 
-0.87 -0.03 -2.17389 8.29497 0.0090015 0.00863079 -0.000174242 0.0088346 1.56369e-07 271.31 
-0.83 -0.05 -2.74461 7.99995 0.00903693 0.00868429 -0.000153953 0.00888304 1.57114e-07 271.505 
-0.91 -0.03 -1.4845 8.31858 0.00899184 0.00862155 -0.000186758 0.00883076 1.56247e-07 271.405 
-0.81 -0.05 -2.98062 7.60663 0.00905179 0.00869763 -0.000147632 0.00889616 1.57332e-07 271.529 
-0.89 -0.03 -1.806 8.28276 0.00899795 0.00863179 -0.000176031 0.00883492 1.56348e-07 271.358 
-0.77 -0.05 -3.76184 7.26503 0.0090642 0.00872145 -0.000155579 0.00890978 1.57516e-07 271.626 
-0.85 -0.03 -2.48778 8.23153 0.00900925 0.00864592 -0.000174827 0.00884951 1.56583e-07 271.397 
-0.75 -0.05 -4.04269 7.09174 0.00907028 0.0087496 -0.000156992 0.00892316 1.57664e-07 271.78 
-0.83 -0.03 -2.70745 8.34302 0.0090252 0.00867371 -0.000163434 0.00887051 1.56948e-07 271.409 
-0.81 -0.03 -3.11933 7.87785 0.00903311 0.00869502 -0.000157886 0.00888046 1.57079e-07 271.486 
-0.79 -0.03 -3.21216 8.04929 0.00904272 0.00872036 -0.000158212 0.00889818 1.57423e-07 271.433 
-0.77 -0.03 -3.6477 7.59114 0.00905133 0.00872614 -0.000159291 0.00890157 1.57439e-07 271.508 
-0.95 -0.17 -0.709892 5.25778 0.00908144 0.00869901 -0.00014181 0.00890153 1.57418e-07 271.544 
-0.99 -0.15 -0.137629 5.00151 0.00903902 0.00870736 -0.000172781 0.00889185 1.57201e-07 271.624 
-0.89 -0.17 -2.04914 5.8718 0.00910884 0.00867791 -0.000124187 0.00891054 1.57412e-07 271.83 
-0.97 -0.15 -0.510305 5.41824 0.00906259 0.00870136 -0.000166464 0.00889392 1.57196e-07 271.695 
-0.95 -0.15 -0.871647 5.68806 0.00907365 0.00868499 -0.000151485 0.00888959 1.57164e-07 271.618 
-0.93 -0.15 -1.1887 6.0873 0.00907862 0.00867321 -0.000140935 0.00889102 1.57294e-07 271.437 
-0.83 -0.17 -3.09734 5.62956 0.00912862 0.00870004 -0.000107908 0.00893019 1.57787e-07 271.781 
-0.91 -0.15 -1.48012 6.14357 0.00908893 0.00867985 -0.000139162 0.00890348 1.57383e-07 271.665 
-0.99 -0.13 -0.239555 5.38186 0.0090427 0.008706 -0.000188569 0.00888799 1.57119e-07 271.648 
-0.89 -0.15 -1.73531 6.2133 0.00908726 0.00866107 -0.000128332 0.00889184 1.57183e-07 271.653 
-0.97 -0.13 -0.540887 5.80041 0.00904753 0.00868344 -0.000174141 0.00888223 1.57104e-07 271.497 
-0.87 -0.15 -2.34163 6.10757 0.00910062 0.00868063 -0.000124786 0.00891154 1.57437e-07 271.818 
-0.95 -0.13 -0.990054 6.09538 0.00905995 0.00867115 -0.000163458 0.00888171 1.57128e-07 271.44 
-0.77 -0.17 -4.17077 5.30542 0.00915416 0.00872522 -0.000105201 0.00895651 1.58233e-07 271.815 
-0.85 -0.15 -2.69934 6.21302 0.00911797 0.00867684 -0.000118237 0.00891431 1.57631e-07 271.566 
-0.93 -0.13 -1.22492 6.24209 0.00908041 0.00867309 -0.000155352 0.00889559 1.57241e-07 271.669 
-0.83 -0.15 -2.98914 5.99454 0.00912621 0.00869361 -0.000116774 0.00892523 1.57772e-07 271.657 
-0.91 -0.13 -1.56921 6.47035 0.00908276 0.00866198 -0.000145253 0.00888994 1.57213e-07 271.545 
-0.99 -0.11 -0.0799485 5.68489 0.00904254 0.00869547 -0.000185698 0.00888413 1.56998e-07 271.739 
-0.81 -0.15 -3.3998 5.89645 0.00913385 0.00870759 -0.000118405 0.00893387 1.57949e-07 271.615 
-0.89 -0.13 -1.95688 6.61969 0.00909073 0.0086647 -0.000133666 0.00889289 1.57257e-07 271.559 
-0.97 -0.11 -0.513687 6.21474 0.00903867 0.00867399 -0.000179388 0.00887695 1.56991e-07 271.531 
-0.79 -0.15 -3.75162 5.85554 0.00913368 0.00872086 -0.000121477 0.00894493 1.58137e-07 271.627 
-0.87 -0.13 -2.32912 6.67517 0.00909671 0.00866902 -0.000134606 0.00889965 1.57433e-07 271.461 
-0.95 -0.11 -0.798531 6.37517 0.00904537 0.00866724 -0.000175712 0.008873 1.57067e-07 271.279 
-0.77 -0.15 -4.13734 5.69301 0.00913487 0.00872111 -0.000117865 0.0089438 1.58127e-07 271.61 
-0.85 -0.13 -2.68025 6.38432 0.00910135 0.00867422 -0.000128065 0.00890313 1.57455e-07 271.529 
-0.93 -0.11 -1.25849 6.71627 0.00905278 0.00865725 -0.000166166 0.00887277 1.57019e-07 271.355 
-0.75 -0.15 -4.38942 5.56821 0.00914285 0.00874256 -0.000114645 0.00895531 1.58291e-07 271.679 
-0.83 -0.13 -2.99715 6.37091 0.00911233 0.00869205 -0.000127874 0.00891765 1.57533e-07 271.837 
-0.91 -0.11 -1.64594 6.83891 0.00906148 0.00865029 -0.000151845 0.00887517 1.57011e-07 271.441 
-0.99 -0.09 -0.114402 5.91016 0.0090052 0.00868411 -0.000197385 0.00885951 1.5674e-07 271.431 
-0.81 -0.13 -3.46104 6.37361 0.00911393 0.00870605 -0.0001229 0.00892804 1.57876e-07 271.563 
-0.89 -0.11 -1.9906 7.02868 0.00907499 0.00866055 -0.000144554 0.00888642 1.57263e-07 271.351 
-0.97 -0.09 -0.318373 6.66743 0.00902666 0.00866741 -0.000188474 0.00886636 1.56828e-07 271.49 
-0.79 -0.13 -3.79706 6.24414 0.00912277 0.00871774 -0.00012007 0.00893594 1.57941e-07 271.692 
-0.87 -0.11 -2.25309 6.97355 0.0090826 0.00866375 -0.000139303 0.00889289 1.57325e-07 271.442 
-0.95 -0.09 -0.779589 6.76403 0.00903486 0.00865979 -0.000179196 0.00886967 1.56821e-07 271.603 
-0.77 -0.13 -4.03331 6.04073 0.0091247 0.00871804 -0.000119651 0.00893435 1.57999e-07 271.544 
-0.85 -0.11 -2.64125 6.81843 0.00908688 0.00867404 -0.000132157 0.00889554 1.57437e-07 271.329 
-0.93 -0.09 -1.10658 7.00289 0.009039 0.00864743 -0.000173208 0.00886715 1.56935e-07 271.328 
-0.83 -0.11 -3.1318 6.79728 0.00908661 0.00868417 -0.000130159 0.00890365 1.57504e-07 271.46 
-0.91 -0.09 -1.4317 7.24936 0.00904359 0.00863984 -0.000161507 0.0088597 1.56843e-07 271.259 
-0.99 -0.07 -0.192049 6.17345 0.00900353 0.00867796 -0.000203999 0.00885799 1.56696e-07 271.46 
-0.81 -0.11 -3.42517 6.60656 0.00909648 0.00870994 -0.000130412 0.00892114 1.57547e-07 271.92 
-0.89 -0.09 -1.88371 7.38611 0.00905561 0.00865258 -0.000157804 0.00887297 1.5703e-07 271.342 
-0.97 -0.07 -0.507081 6.95042 0.00899849 0.00865613 -0.000200421 0.00884567 1.56474e-07 271.467 
-0.79 -0.11 -3.65374 6.61017 0.009103 0.00871136 -0.000131221 0.0089259 1.57842e-07 271.556 
-0.87 -0.09 -2.118 7.194 0.00906966 0.00865669 -0.000147447 0.00888326 1.57234e-07 271.304 
-0.95 -0.07 -0.788617 7.18824 0.00900171 0.00865228 -0.000186943 0.00885104 1.5653e-07 271.536 
-0.77 -0.11 -4.02784 6.23818 0.00912016 0.00871819 -0.000132432 0.00893362 1.57973e-07 271.565 
-0.85 -0.09 -2.43359 7.22722 0.00907806 0.00866848 -0.000141045 0.00888969 1.57242e-07 271.487 
-0.93 -0.07 -1.2702 7.42847 0.00901371 0.00863625 -0.000179236 0.00885223 1.56645e-07 271.373 
-0.75 -0.11 -4.39372 6.10106 0.00913294 0.00874704 -0.00012989 0.00895409 1.5827e-07 271.677 
-0.83 -0.09 -2.77816 7.24569 0.00908655 0.00868166 -0.000137218 0.00890213 1.5744e-07 271.525 
-0.91 -0.07 -1.60251 7.5997 0.00902702 0.00863556 -0.000173755 0.00885581 1.5668e-07 271.422 
-0.99 -0.05 -0.142043 6.58958 0.00898229 0.00866717 -0.000214004 0.00884206 1.56416e-07 271.457 
-0.81 -0.09 -3.27914 6.98509 0.0090961 0.0087127 -0.000139012 0.00892067 1.57727e-07 271.595 
-0.89 -0.07 -1.86259 7.6668 0.00903497 0.00864515 -0.000167271 0.00886375 1.56898e-07 271.288 
-0.97 -0.05 -0.575605 7.16848 0.00899769 0.00864935 -0.000203121 0.0088476 1.56543e-07 271.408 
-0.79 -0.09 -3.68719 6.87834 0.0090962 0.00871314 -0.000136306 0.00891826 1.57712e-07 271.547 
-0.87 -0.07 -2.27448 7.61196 0.00903877 0.00864312 -0.000156363 0.00886025 1.56747e-07 271.443 
-0.95 -0.05 -0.828142 7.60064 0.0090051 0.00864188 -0.000194588 0.00884638 1.56497e-07 271.449 
-0.77 -0.09 -4.01122 6.68819 0.00909427 0.00871799 -0.000134964 0.0089215 1.57753e-07 271.575 
-0.85 -0.07 -2.54594 7.46625 0.00904867 0.00865934 -0.000149212 0.00887646 1.56986e-07 271.525 
-0.93 -0.05 -1.19019 7.85092 0.00900245 0.00862764 -0.000181506 0.00884144 1.56453e-07 271.374 
-0.75 -0.09 -4.31071 6.51027 0.00909462 0.00874502 -0.000142436 0.0089342 1.57918e-07 271.678 
-0.83 -0.07 -3.02173 7.77013 0.00905954 0.00868764 -0.000145 0.00889033 1.57108e-07 271.738 
-0.91 -0.05 -1.56679 7.92534 0.009004 0.00862836 -0.000176696 0.00884131 1.56478e-07 271.327 
-0.99 -0.03 -0.215236 7.01068 0.00895538 0.00865164 -0.000225651 0.00882135 1.56084e-07 271.399 
-0.81 -0.07 -3.3016 7.40694 0.00905902 0.00870342 -0.000144788 0.00889984 1.57329e-07 271.646 
-0.89 -0.05 -1.82525 7.97243 0.00900604 0.00863662 -0.000172454 0.00884529 1.56575e-07 271.281 