ITEM: TIMESTEP
1085000
ITEM: NUMBER OF CELLS
5000
ITEM: BOX BOUNDS ss ss pp
-1 1
-0.5 0.5
-0.5 0.5
ITEM: CELLS xc yc f_U[*] f_V[*] f_Tau[1] f_Tau[2] f_Tau[3] f_Press[*] f_Mrho[*] f_Ttra[*] 
-0.99 -0.49 -0.229834 0.296629 0.00899498 0.00875284 -2.7585e-05 0.00888731 1.5675e-07 272.267 
-0.97 -0.49 -0.598015 0.0684546 0.00899145 0.00875335 -3.24058e-05 0.00888553 1.56625e-07 272.429 
-0.95 -0.49 -0.728919 0.0581036 0.00899314 0.00875463 -3.12854e-05 0.00888313 1.56617e-07 272.37 
-0.93 -0.49 -0.949291 0.127434 0.0089993 0.00874743 -2.24743e-05 0.00888268 1.56677e-07 272.25 
-0.91 -0.49 -1.19161 0.0863808 0.00900227 0.00872679 -2.22385e-05 0.00886934 1.56463e-07 272.214 
-0.99 -0.47 -0.150031 0.563879 0.00901938 0.0087729 -1.98692e-05 0.0089059 1.57058e-07 272.301 
-0.89 -0.49 -1.54981 0.205759 0.00901667 0.00874299 -2.2429e-05 0.00888307 1.56747e-07 272.141 
-0.97 -0.47 -0.403139 0.376116 0.00902006 0.0087508 -3.3162e-05 0.00890057 1.56878e-07 272.449 
-0.87 -0.49 -1.74489 0.0601197 0.00903493 0.00875632 -1.83986e-05 0.00889896 1.57016e-07 272.161 
-0.95 -0.47 -0.693977 0.306011 0.00902493 0.00875489 -3.33563e-05 0.00889998 1.56901e-07 272.391 
-0.85 -0.49 -2.00722 0.108723 0.00904051 0.00875489 -1.13242e-05 0.00890106 1.56931e-07 272.372 
-0.93 -0.47 -0.907024 0.308016 0.00902913 0.00874301 -3.29897e-05 0.00889345 1.5684e-07 272.298 
-0.83 -0.49 -2.08659 -0.000746425 0.00904553 0.00876334 1.20002e-06 0.00890988 1.57151e-07 272.26 
-0.91 -0.47 -1.24752 0.541036 0.00904118 0.0087315 -3.02715e-05 0.0088925 1.56893e-07 272.177 
-0.99 -0.45 -0.125632 0.926955 0.009052 0.00877444 -3.02161e-05 0.00892352 1.57337e-07 272.354 
-0.81 -0.49 -2.26722 0.204893 0.00905768 0.00877157 1.22253e-05 0.00892239 1.5737e-07 272.264 
-0.89 -0.47 -1.61092 0.459813 0.00904606 0.00874121 -3.25391e-05 0.00889303 1.56942e-07 272.108 
-0.97 -0.45 -0.425896 0.636963 0.00905352 0.00876131 -3.35718e-05 0.00892253 1.57309e-07 272.374 
-0.79 -0.49 -2.54068 0.0910608 0.00906742 0.00877926 1.46756e-05 0.00893281 1.57489e-07 272.376 
-0.87 -0.47 -1.93394 0.278731 0.00904838 0.00874621 -2.95601e-05 0.00890464 1.57145e-07 272.111 
-0.95 -0.45 -0.734704 0.576254 0.00905491 0.00875344 -3.60479e-05 0.00891445 1.5712e-07 272.455 
-0.77 -0.49 -2.57673 -0.0314766 0.00907026 0.00878904 2.4103e-05 0.00893915 1.57562e-07 272.443 
-0.85 -0.47 -1.99863 0.357095 0.0090564 0.00874747 -1.47356e-05 0.00891155 1.57146e-07 272.32 
-0.93 -0.45 -1.14167 0.56555 0.00906115 0.00874047 -4.19891e-05 0.00890717 1.5714e-07 272.197 
-0.83 -0.47 -2.42733 0.218307 0.00906452 0.00875431 -9.81381e-06 0.00891749 1.57292e-07 272.25 
-0.91 -0.45 -1.29983 0.74738 0.00905963 0.0087347 -3.80481e-05 0.00889801 1.57079e-07 272.023 
-0.99 -0.43 -0.211746 1.16726 0.00905729 0.0087722 -3.71264e-05 0.00892954 1.57665e-07 271.973 
-0.81 -0.47 -2.61214 0.441269 0.00907461 0.0087616 -1.10776e-06 0.00893051 1.57435e-07 272.398 
-0.89 -0.45 -1.58545 0.851249 0.0090715 0.00873494 -3.72853e-05 0.00890417 1.57109e-07 272.158 
-0.97 -0.43 -0.452113 0.937934 0.00907239 0.00876866 -3.973e-05 0.0089342 1.57619e-07 272.193 
-0.79 -0.47 -2.91896 0.351369 0.00908549 0.00877166 9.33833e-06 0.0089421 1.57672e-07 272.342 
-0.87 -0.45 -1.99428 0.609317 0.00907462 0.0087402 -2.4725e-05 0.0089105 1.57187e-07 272.218 
-0.95 -0.43 -0.785404 0.936202 0.00908013 0.00875328 -4.37222e-05 0.00892471 1.5749e-07 272.126 
-0.77 -0.47 -3.16326 0.0577193 0.0090955 0.00878138 1.20223e-05 0.00894827 1.57843e-07 272.235 
-0.85 -0.45 -2.31734 0.507282 0.00907773 0.00873734 -2.3956e-05 0.00891714 1.57377e-07 272.091 
-0.93 -0.43 -0.987379 0.936148 0.00908197 0.00874135 -3.80972e-05 0.0089152 1.57263e-07 272.229 
-0.75 -0.47 -3.26895 0.400269 0.00910684 0.0087939 1.87242e-05 0.00895416 1.57802e-07 272.486 
-0.83 -0.45 -2.53078 0.590258 0.00908971 0.00875466 -2.0173e-05 0.00892925 1.57564e-07 272.138 
-0.91 -0.43 -1.47332 1.00785 0.00908688 0.0087379 -4.2991e-05 0.00891505 1.57297e-07 272.166 
-0.99 -0.41 -0.124159 1.48262 0.00907906 0.00877662 -4.76657e-05 0.00893859 1.57737e-07 272.122 
-0.81 -0.45 -2.89171 0.740605 0.00909248 0.00874366 -1.09618e-05 0.00892962 1.5755e-07 272.172 
-0.89 -0.43 -1.71225 1.13543 0.0090832 0.00872792 -4.11207e-05 0.008912 1.57292e-07 272.082 
-0.97 -0.41 -0.388238 1.18546 0.00908353 0.00876646 -5.02941e-05 0.0089335 1.57572e-07 272.253 
-0.79 -0.45 -2.98732 0.495684 0.00910199 0.00876505 2.51322e-06 0.00894256 1.57764e-07 272.197 
-0.87 -0.43 -1.98851 0.967199 0.00908752 0.00872945 -3.72742e-05 0.00891675 1.57329e-07 272.162 
-0.95 -0.41 -0.626857 1.2702 0.00908792 0.00875804 -4.51855e-05 0.00893378 1.57562e-07 272.279 
-0.77 -0.45 -3.36745 0.434402 0.00911075 0.00877943 6.32605e-06 0.00894987 1.57857e-07 272.26 
-0.85 -0.43 -2.36705 0.858554 0.0091023 0.00873918 -3.04214e-05 0.0089295 1.57604e-07 272.077 
-0.93 -0.41 -1.20042 1.32791 0.00909025 0.00873498 -4.68017e-05 0.00892575 1.57454e-07 272.221 
-0.75 -0.45 -3.64957 0.505079 0.00911501 0.00878512 8.96178e-06 0.00895638 1.58075e-07 272.082 
-0.83 -0.43 -2.69207 0.851021 0.00910427 0.00874547 -2.03609e-05 0.00893277 1.57581e-07 272.215 
-0.91 -0.41 -1.3723 1.30434 0.00909726 0.00873771 -4.17908e-05 0.00892654 1.57554e-07 272.072 
-0.99 -0.39 -0.13564 1.74391 0.00908118 0.00878011 -5.27649e-05 0.00894109 1.5786e-07 271.988 
-0.81 -0.43 -2.99901 0.96213 0.00911172 0.00873538 -1.77579e-05 0.00893487 1.57652e-07 272.156 
-0.89 -0.41 -1.67511 1.42997 0.0090984 0.00872943 -4.55169e-05 0.00892478 1.57384e-07 272.312 
-0.97 -0.39 -0.519833 1.48491 0.00909342 0.0087666 -5.294e-05 0.00893685 1.57666e-07 272.193 
-0.79 -0.43 -3.3761 0.780871 0.00911884 0.0087561 -9.19709e-06 0.00894831 1.5792e-07 272.104 
-0.87 -0.41 -2.08156 1.35148 0.00910478 0.00872734 -3.91503e-05 0.00892803 1.57453e-07 272.292 
-0.95 -0.39 -0.885435 1.585 0.00909754 0.00875477 -5.27375e-05 0.00893253 1.57511e-07 272.329 
-0.77 -0.43 -3.62627 0.782899 0.00912711 0.00877643 8.65651e-07 0.00896049 1.5813e-07 272.113 
-0.85 -0.41 -2.55464 1.16428 0.00910423 0.0087327 -3.75759e-05 0.0089279 1.57598e-07 272.038 
-0.93 -0.39 -0.903687 1.586 0.00910471 0.00873541 -4.74642e-05 0.00893134 1.57566e-07 272.197 
-0.83 -0.41 -2.78383 1.17967 0.00911405 0.00873414 -3.04809e-05 0.00892769 1.57576e-07 272.069 
-0.91 -0.39 -1.35399 1.74014 0.00910994 0.00873488 -4.89187e-05 0.00893543 1.57663e-07 272.155 
-0.99 -0.37 -0.0127727 2.03383 0.00908724 0.00878494 -6.47101e-05 0.00894664 1.57962e-07 271.98 
-0.81 -0.41 -3.02236 1.30192 0.0091182 0.00873003 -2.09155e-05 0.00893189 1.5772e-07 271.949 
-0.89 -0.39 -1.67877 1.70229 0.00911662 0.00873285 -4.77044e-05 0.00893892 1.57659e-07 272.268 
-0.97 -0.37 -0.438283 1.94544 0.00909586 0.00876072 -6.17176e-05 0.00893751 1.57759e-07 272.053 
-0.79 -0.41 -3.36797 1.07169 0.00913321 0.00875139 -2.0723e-05 0.00895234 1.58019e-07 272.056 
-0.87 -0.39 -1.95098 1.7342 0.0091186 0.00871825 -4.53926e-05 0.00892883 1.57663e-07 271.953 
-0.95 -0.37 -0.814204 1.80699 0.0091031 0.00874968 -5.52168e-05 0.00893564 1.5771e-07 272.08 
-0.77 -0.41 -3.75627 1.12622 0.00914211 0.00877255 -1.38293e-05 0.00896918 1.58278e-07 272.121 
-0.85 -0.39 -2.32913 1.63068 0.00912783 0.00873269 -4.20046e-05 0.00894002 1.57863e-07 271.95 
-0.93 -0.37 -1.22994 1.91295 0.00910793 0.00873708 -5.72262e-05 0.00893468 1.57703e-07 272.062 
-0.75 -0.41 -4.01465 0.937871 0.00915369 0.00877928 -9.65485e-06 0.00897661 1.5836e-07 272.206 
-0.83 -0.39 -2.69968 1.48448 0.00912918 0.00872177 -3.78357e-05 0.00893185 1.57699e-07 271.984 
-0.91 -0.37 -1.46197 1.97913 0.00911828 0.00873244 -5.93043e-05 0.00893927 1.57682e-07 272.239 
-0.99 -0.35 -0.228627 2.25188 0.00909647 0.00878374 -7.4434e-05 0.00895363 1.58208e-07 271.769 
-0.81 -0.39 -3.07609 1.51123 0.00913746 0.00873248 -3.39192e-05 0.00894505 1.578e-07 272.211 
-0.89 -0.37 -1.74627 2.01414 0.00912472 0.00872837 -5.1171e-05 0.00893729 1.57839e-07 271.907 
-0.97 -0.35 -0.418762 2.34697 0.00910188 0.00875298 -6.95799e-05 0.00893966 1.57844e-07 271.971 
-0.79 -0.39 -3.36894 1.47805 0.00914071 0.00873995 -2.66907e-05 0.00895099 1.58051e-07 271.96 
-0.87 -0.37 -2.12249 2.12905 0.0091269 0.00871707 -5.05205e-05 0.00893356 1.57713e-07 272.011 
-0.95 -0.35 -0.794099 2.15424 0.00911473 0.00874417 -6.53208e-05 0.00893892 1.57796e-07 272.032 
-0.77 -0.39 -3.78667 1.45513 0.00915041 0.00877205 -2.13711e-05 0.00897249 1.58354e-07 272.091 
-0.85 -0.37 -2.51763 2.0409 0.0091292 0.00872656 -5.01006e-05 0.00893571 1.57814e-07 271.903 
-0.93 -0.35 -1.15725 2.26097 0.00912488 0.00873973 -6.36117e-05 0.00894203 1.57848e-07 272.037 
-0.83 -0.37 -2.98283 1.78889 0.00913493 0.00871414 -4.08097e-05 0.00893161 1.57737e-07 271.911 
-0.91 -0.35 -1.54065 2.3542 0.00912452 0.00873184 -5.88174e-05 0.00893641 1.57689e-07 272.139 
-0.81 -0.37 -3.24088 1.78226 0.00914349 0.00872938 -3.44818e-05 0.00894704 1.57895e-07 272.108 
-0.89 -0.35 -1.91288 2.441 0.00912421 0.00871963 -5.47672e-05 0.00893123 1.57716e-07 271.935 
-0.79 -0.37 -3.64337 1.88923 0.00914783 0.0087354 -3.2947e-05 0.00895719 1.58191e-07 271.908 
-0.87 -0.35 -2.2968 2.36908 0.00913024 0.00871812 -5.58538e-05 0.00893373 1.57761e-07 271.935 
-0.77 -0.37 -3.91233 1.94857 0.00915622 0.00876795 -3.00718e-05 0.00897093 1.58199e-07 272.31 
-0.85 -0.35 -2.59911 2.46359 0.00913806 0.00871865 -4.95611e-05 0.00893834 1.57869e-07 271.889 
-0.83 -0.35 -2.96861 2.17486 0.00914106 0.00871283 -4.8691e-05 0.00893543 1.57835e-07 271.858 
-0.81 -0.35 -3.41118 2.17436 0.0091472 0.00872528 -4.85669e-05 0.00894912 1.57964e-07 272.053 
-0.79 -0.35 -3.73446 2.23692 0.00916269 0.00873463 -4.40683e-05 0.00895938 1.58222e-07 271.921 
-0.77 -0.35 -3.93484 2.17966 0.00917234 0.00875525 -3.54028e-05 0.00897578 1.58302e-07 272.281 
-0.75 -0.35 -4.21061 2.2117 0.00918351 0.00876809 -2.85702e-05 0.00898496 1.58598e-07 272.05 
-0.75 -0.49 -2.77897 0.180966 0.00907816 0.00879379 2.82349e-05 0.00894001 1.57632e-07 272.349 
-0.75 -0.43 -3.86296 0.669544 0.00913717 0.0087813 -2.72522e-06 0.0089689 1.58185e-07 272.273 
-0.75 -0.39 -4.37526 1.34608 0.00915218 0.00877247 -1.90499e-05 0.00897386 1.58381e-07 272.086 
-0.75 -0.37 -4.22847 1.8399 0.00916149 0.00876934 -1.67549e-05 0.00897453 1.58359e-07 272.145 
-0.77 -0.33 -3.92935 2.41683 0.00916846 0.00874669 -4.79523e-05 0.00896641 1.58454e-07 271.735 
-0.73 -0.49 -3.04136 0.162374 0.00908555 0.0088113 2.57476e-05 0.0089557 1.57889e-07 272.381 
-0.73 -0.47 -3.37512 0.276564 0.00911335 0.00880361 2.36991e-05 0.00896869 1.58133e-07 272.356 
-0.73 -0.45 -3.80898 0.463961 0.00912787 0.00880391 1.32363e-05 0.00897366 1.58292e-07 272.233 
-0.73 -0.43 -4.20793 0.880985 0.00914602 0.00880231 5.07424e-07 0.00898292 1.58424e-07 272.286 
-0.73 -0.41 -4.35243 1.14197 0.00916162 0.00879769 -6.33013e-06 0.00898533 1.58609e-07 272.042 
-0.73 -0.39 -4.52733 1.41805 0.0091577 0.00878979 -7.11124e-06 0.00897697 1.5847e-07 272.028 
-0.73 -0.37 -4.81894 1.65218 0.00916682 0.00877722 -2.3003e-05 0.00897654 1.5851e-07 271.945 
-0.73 -0.35 -4.48329 1.97394 0.00918726 0.00878269 -2.63208e-05 0.00898881 1.58682e-07 272.022 
-0.81 -0.29 -3.36199 3.3673 0.00916002 0.00871868 -6.53828e-05 0.00894764 1.58105e-07 271.765 
-0.89 -0.27 -1.91041 3.85181 0.00912602 0.00869921 -8.69908e-05 0.00892926 1.57743e-07 271.828 
-0.97 -0.25 -0.47075 3.75926 0.00908986 0.00872989 -0.000111229 0.00892193 1.5776e-07 271.577 
-0.83 -0.29 -2.95487 3.3487 0.00915467 0.00871586 -6.8765e-05 0.00894532 1.57853e-07 272.127 
-0.91 -0.27 -1.45649 3.95514 0.00912515 0.00870676 -8.98898e-05 0.00893078 1.57767e-07 271.834 
-0.99 -0.25 -0.146507 3.77624 0.00908133 0.0087574 -0.000119091 0.00893443 1.57965e-07 271.603 
-0.79 -0.29 -3.65139 3.24798 0.0091654 0.00872295 -6.29879e-05 0.0089517 1.58153e-07 271.806 
-0.87 -0.27 -2.33957 3.96137 0.00913431 0.00870186 -7.88257e-05 0.00893477 1.5783e-07 271.848 
-0.95 -0.25 -0.818918 3.92796 0.00910512 0.00872004 -0.000105142 0.00892863 1.5779e-07 271.729 
-0.77 -0.29 -4.05441 3.23173 0.00917793 0.00873698 -5.74828e-05 0.00896675 1.58322e-07 271.971 
-0.85 -0.27 -2.64201 3.79932 0.00914825 0.00871574 -7.70419e-05 0.00894577 1.57962e-07 271.955 
-0.93 -0.25 -1.11261 4.08386 0.0091112 0.00870909 -0.000102058 0.00892461 1.57665e-07 271.822 
-0.75 -0.29 -4.57841 3.14729 0.00918684 0.00875744 -5.6569e-05 0.00898336 1.58602e-07 271.995 
-0.83 -0.27 -3.09422 3.69067 0.00915657 0.00871827 -7.21233e-05 0.00894874 1.57953e-07 272.059 
-0.91 -0.25 -1.45466 4.22673 0.0091169 0.00869784 -9.74612e-05 0.00892148 1.57613e-07 271.817 
-0.99 -0.23 -0.0494227 3.96762 0.00907181 0.00875355 -0.000127568 0.00892603 1.57776e-07 271.674 
-0.81 -0.27 -3.46591 3.73245 0.00916076 0.00871484 -7.55509e-05 0.00894713 1.58033e-07 271.873 
-0.89 -0.25 -1.77221 4.22764 0.00912963 0.00869906 -9.04771e-05 0.00893365 1.57742e-07 271.965 
-0.97 -0.23 -0.305256 4.13788 0.00908513 0.00873003 -0.000121564 0.00892082 1.5769e-07 271.664 
-0.79 -0.27 -3.90345 3.60058 0.00917356 0.00871849 -6.90877e-05 0.00895043 1.58223e-07 271.647 
-0.87 -0.25 -2.09307 4.29539 0.00913839 0.0086971 -9.22132e-05 0.00893813 1.57919e-07 271.796 
-0.95 -0.23 -0.750733 4.35027 0.00909048 0.00870975 -0.000118542 0.00891221 1.57461e-07 271.796 
-0.77 -0.27 -4.26561 3.62415 0.00917466 0.0087356 -6.50755e-05 0.00896843 1.58452e-07 271.799 
-0.85 -0.25 -2.54135 4.20473 0.0091504 0.00871213 -8.9056e-05 0.00894652 1.57953e-07 271.992 
-0.93 -0.23 -1.1768 4.42498 0.00910882 0.00870513 -0.000111065 0.00892034 1.57531e-07 271.922 
-0.83 -0.25 -3.01347 4.16191 0.00915544 0.00870663 -8.05651e-05 0.00893782 1.57938e-07 271.753 
-0.91 -0.23 -1.52249 4.43019 0.0091189 0.00869133 -0.000102846 0.00892242 1.57551e-07 271.951 
-0.99 -0.21 -0.0608187 4.13642 0.00908513 0.00874512 -0.000136435 0.00892683 1.57782e-07 271.689 
-0.81 -0.25 -3.30977 4.10176 0.00916306 0.00872291 -7.59101e-05 0.00895136 1.581e-07 271.887 
-0.89 -0.23 -1.88495 4.76408 0.00912563 0.00869777 -0.000104169 0.00892505 1.57615e-07 271.922 
-0.97 -0.21 -0.310884 4.48616 0.00909477 0.00871805 -0.000130945 0.00891544 1.57616e-07 271.626 
-0.79 -0.25 -3.78336 4.13552 0.00915779 0.0087098 -7.78944e-05 0.0089451 1.5815e-07 271.611 
-0.87 -0.23 -2.36785 4.60454 0.009138 0.00869406 -0.00010486 0.00892807 1.57756e-07 271.77 
-0.95 -0.21 -0.628308 4.71269 0.00910202 0.008711 -0.000125274 0.00891914 1.57647e-07 271.686 
-0.77 -0.25 -4.20228 3.85484 0.00917024 0.00873532 -7.64433e-05 0.00895928 1.58293e-07 271.795 
-0.85 -0.23 -2.66676 4.63873 0.00914018 0.00870472 -9.25575e-05 0.00893272 1.57794e-07 271.847 
-0.93 -0.21 -1.12793 4.90138 0.0091042 0.00869397 -0.000123667 0.00891466 1.57614e-07 271.606 
-0.83 -0.23 -2.9951 4.60034 0.00914202 0.00869901 -8.66909e-05 0.00893227 1.57812e-07 271.802 
-0.91 -0.21 -1.51471 4.77264 0.00911456 0.00868694 -0.000114081 0.00891664 1.57599e-07 271.693 
-0.99 -0.19 -0.211792 4.42717 0.00907421 0.00873432 -0.000150532 0.00891665 1.57554e-07 271.771 
-0.81 -0.23 -3.52826 4.39979 0.00915117 0.00871607 -8.30894e-05 0.00894581 1.57966e-07 271.949 
-0.89 -0.21 -1.88696 5.15493 0.00913058 0.00870159 -0.000111132 0.00893191 1.5775e-07 271.898 
-0.97 -0.19 -0.505815 4.74926 0.00908378 0.00870777 -0.000137045 0.00890479 1.5742e-07 271.64 
-0.79 -0.23 -3.69389 4.49231 0.00916323 0.00871833 -7.87727e-05 0.0089538 1.58108e-07 271.947 
-0.87 -0.21 -2.21952 5.05924 0.00913096 0.00868063 -0.000107508 0.00892127 1.57733e-07 271.604 
-0.95 -0.19 -0.814058 5.02856 0.00909698 0.00871117 -0.00013467 0.00891424 1.57568e-07 271.674 
-0.77 -0.23 -3.97023 4.22809 0.00916395 0.00873023 -8.64285e-05 0.0089528 1.58215e-07 271.733 
-0.85 -0.21 -2.75324 4.99173 0.00913801 0.00869632 -9.78622e-05 0.00892984 1.57767e-07 271.806 
-0.93 -0.19 -0.922571 5.26353 0.00910654 0.00868726 -0.000127733 0.00891301 1.57615e-07 271.554 
-0.75 -0.23 -4.48475 4.0722 0.00917377 0.00874407 -8.26793e-05 0.00896888 1.58494e-07 271.741 
-0.83 -0.21 -3.11214 4.83376 0.00915242 0.00870065 -9.48895e-05 0.00893899 1.57828e-07 271.978 
-0.91 -0.19 -1.3419 5.31138 0.00910908 0.00868152 -0.000124564 0.00890819 1.57467e-07 271.662 
-0.81 -0.21 -3.30109 4.75845 0.00915492 0.00870791 -8.87349e-05 0.0089491 1.5813e-07 271.767 
-0.89 -0.19 -1.91794 5.51011 0.0091147 0.00869273 -0.00011509 0.00891946 1.57579e-07 271.813 
-0.79 -0.21 -3.71311 4.77807 0.00915718 0.00871793 -8.83938e-05 0.00895383 1.58249e-07 271.705 
-0.87 -0.19 -2.40624 5.47394 0.00911869 0.00868305 -0.000109372 0.0089181 1.57659e-07 271.634 
-0.77 -0.21 -4.176 4.68903 0.00916722 0.00873462 -9.03349e-05 0.00896159 1.58382e-07 271.713 
-0.85 -0.19 -2.66749 5.3762 0.00912123 0.00868483 -0.00010928 0.00891702 1.57618e-07 271.671 
-0.75 -0.21 -4.58746 4.57465 0.00916924 0.00874217 -9.27778e-05 0.00896695 1.58403e-07 271.84 
-0.83 -0.19 -2.97303 5.12511 0.00911973 0.00869762 -0.00010469 0.0089245 1.57742e-07 271.685 
-0.81 -0.19 -3.35798 5.17654 0.00913607 0.00869793 -9.74689e-05 0.00893117 1.57871e-07 271.667 
-0.79 -0.19 -3.82984 5.12947 0.00915497 0.0087276 -9.8134e-05 0.00895737 1.58254e-07 271.805 
-0.77 -0.19 -4.11004 5.15497 0.00916705 0.00873191 -0.000100438 0.00896241 1.5839e-07 271.724 
-0.99 -0.33 -0.0582395 2.47173 0.00909825 0.00877992 -8.25201e-05 0.00894815 1.58006e-07 271.951 
-0.97 -0.33 -0.378189 2.61909 0.00911202 0.00875201 -8.17808e-05 0.00894405 1.57895e-07 272.017 
-0.91 -0.33 -1.53321 2.76775 0.00913882 0.00872291 -6.48509e-05 0.00893919 1.57681e-07 272.237 
-0.99 -0.31 -0.193143 2.80185 0.00909489 0.0087726 -9.6498e-05 0.00894137 1.57936e-07 271.864 
-0.97 -0.31 -0.420184 2.90738 0.00910061 0.0087516 -8.96423e-05 0.00893643 1.57937e-07 271.714 
-0.87 -0.33 -2.27753 2.79765 0.00915195 0.00872363 -5.66185e-05 0.00894932 1.57991e-07 272.012 
-0.95 -0.31 -0.795167 3.06171 0.00910778 0.00873028 -8.50289e-05 0.00893039 1.57692e-07 271.951 
-0.85 -0.33 -2.55896 2.72061 0.00914659 0.00871281 -5.49887e-05 0.00893954 1.57751e-07 272.128 
-0.93 -0.31 -1.15909 2.99513 0.0091212 0.0087317 -8.40836e-05 0.00894055 1.57768e-07 272.129 
-0.91 -0.31 -1.51217 3.03612 0.00913147 0.0087148 -6.99196e-05 0.00894029 1.57711e-07 272.22 
-0.99 -0.29 -0.152207 3.07601 0.0090872 0.00876959 -0.000103715 0.0089413 1.57981e-07 271.786 
-0.81 -0.33 -3.36724 2.57117 0.00915849 0.00872574 -5.34103e-05 0.00895126 1.58095e-07 271.892 
-0.89 -0.31 -1.83157 3.20452 0.00913803 0.00871043 -6.54168e-05 0.00893713 1.5783e-07 271.919 
-0.97 -0.29 -0.451966 3.16247 0.00909916 0.00874334 -9.86028e-05 0.00893183 1.57792e-07 271.822 
-0.87 -0.31 -2.28953 3.11696 0.00914366 0.00871587 -6.1254e-05 0.00893948 1.57904e-07 271.863 
-0.95 -0.29 -0.759226 3.43977 0.00910758 0.00872751 -9.49239e-05 0.00893035 1.57682e-07 271.967 
-0.85 -0.31 -2.59459 2.96394 0.00915352 0.00871435 -5.92476e-05 0.00894612 1.5797e-07 271.951 
-0.93 -0.29 -1.08647 3.29657 0.00911101 0.00872109 -8.75835e-05 0.00892716 1.57673e-07 271.885 
-0.83 -0.31 -2.90421 3.01758 0.00915951 0.00871689 -5.85772e-05 0.00895091 1.57971e-07 272.094 
-0.91 -0.29 -1.416 3.48966 0.00911381 0.00870523 -8.10898e-05 0.00891977 1.57546e-07 271.88 
-0.99 -0.27 -0.141454 3.45205 0.0091012 0.00876217 -0.000108485 0.00894495 1.58147e-07 271.61 
-0.81 -0.31 -3.27389 2.98443 0.00916449 0.00871979 -6.05055e-05 0.0089586 1.58086e-07 272.13 
-0.89 -0.29 -1.76935 3.52859 0.00912539 0.00870784 -7.66692e-05 0.00892893 1.57671e-07 271.944 
-0.97 -0.27 -0.519668 3.45459 0.00910376 0.00873921 -0.000103159 0.00893673 1.57869e-07 271.839 
-0.79 -0.31 -3.76099 2.78073 0.0091695 0.00872967 -5.67056e-05 0.00896015 1.58266e-07 271.867 
-0.87 -0.29 -2.07247 3.53966 0.00913925 0.00871004 -6.70459e-05 0.00893811 1.57889e-07 271.848 
-0.95 -0.27 -0.693688 3.65658 0.00910606 0.00872259 -9.86698e-05 0.0089273 1.57638e-07 271.951 
-0.77 -0.31 -4.20722 2.8609 0.00917032 0.00873931 -5.09262e-05 0.00895775 1.58242e-07 271.836 
-0.85 -0.29 -2.60352 3.37577 0.00914632 0.0087141 -6.57964e-05 0.00894182 1.57909e-07 271.925 
-0.93 -0.27 -1.07389 3.60801 0.00911257 0.00871227 -9.22269e-05 0.00892331 1.57487e-07 272.09 
-0.95 -0.33 -0.719082 2.59908 0.00911952 0.00873393 -7.64982e-05 0.00893989 1.57864e-07 271.943 
-0.93 -0.33 -1.13729 2.64237 0.00913031 0.00873954 -6.84941e-05 0.00894295 1.57817e-07 272.118 
-0.89 -0.33 -1.98839 2.7775 0.00914784 0.00871337 -5.97885e-05 0.00893991 1.57814e-07 272.03 
-0.83 -0.33 -2.93262 2.60419 0.00915017 0.00871116 -5.46728e-05 0.00894491 1.57975e-07 271.906 
-0.75 -0.31 -4.53822 2.74498 0.00917397 0.00875401 -4.93517e-05 0.00897473 1.58469e-07 271.962 
-0.75 -0.27 -4.51547 3.63203 0.0091871 0.00875295 -6.72874e-05 0.00898105 1.58634e-07 271.87 
-0.75 -0.25 -4.37367 3.74416 0.00917746 0.00874987 -7.21748e-05 0.00897095 1.58508e-07 271.779 
-0.75 -0.19 -4.50921 4.99632 0.0091684 0.0087388 -9.21582e-05 0.00896599 1.58407e-07 271.804 
-0.79 -0.33 -3.59395 2.44587 0.00916058 0.00873142 -5.26977e-05 0.00895593 1.5823e-07 271.802 
-0.75 -0.33 -4.27609 2.52208 0.00917719 0.00875756 -4.07811e-05 0.00897479 1.5855e-07 271.824 
-0.81 -0.17 -3.50783 5.50677 0.00912847 0.00869603 -0.000113982 0.00892443 1.57784e-07 271.611 
-0.79 -0.17 -3.8459 5.60128 0.00914042 0.00872571 -0.000115795 0.00894968 1.58141e-07 271.765 
-0.75 -0.17 -4.42606 5.44424 0.00916824 0.00874142 -0.00010495 0.00896383 1.58295e-07 271.929 
-0.73 -0.31 -4.86264 2.91031 0.00919084 0.00877818 -5.1142e-05 0.00899646 1.58835e-07 271.992 
-0.73 -0.29 -4.80786 3.18218 0.00918607 0.00877496 -5.61259e-05 0.00899125 1.58824e-07 271.853 
-0.73 -0.27 -4.89513 3.3062 0.00919725 0.008779 -6.66519e-05 0.00899907 1.58884e-07 271.988 
-0.73 -0.25 -4.62971 3.77823 0.00918192 0.00877241 -6.82528e-05 0.00898757 1.58805e-07 271.774 
-0.73 -0.23 -4.92253 4.19476 0.00918713 0.00877275 -7.65114e-05 0.00898897 1.58836e-07 271.763 
-0.73 -0.21 -4.86357 4.41954 0.0091796 0.00876521 -9.20587e-05 0.0089857 1.58661e-07 271.964 
-0.73 -0.19 -4.90252 4.72157 0.0091715 0.00877468 -9.8726e-05 0.00898033 1.58576e-07 271.948 
-0.79 -0.05 -3.38566 7.65542 0.00905839 0.008719 -0.0001508 0.00890257 1.57388e-07 271.628 
-0.87 -0.03 -2.18506 8.28724 0.00900162 0.00863121 -0.000174518 0.00883495 1.56384e-07 271.296 
-0.83 -0.05 -2.75244 8.00592 0.009037 0.00868464 -0.000153944 0.00888296 1.57114e-07 271.503 
-0.91 -0.03 -1.48036 8.31783 0.00899351 0.00862275 -0.000186311 0.00883146 1.56264e-07 271.397 
-0.81 -0.05 -2.9722 7.63048 0.00905178 0.00869693 -0.000147771 0.00889554 1.57322e-07 271.527 
-0.89 -0.03 -1.82306 8.2999 0.00899894 0.00863218 -0.000176247 0.00883556 1.5636e-07 271.355 
-0.77 -0.05 -3.74471 7.25174 0.00906339 0.00872222 -0.000155619 0.00890941 1.57509e-07 271.627 
-0.85 -0.03 -2.48972 8.23598 0.00900918 0.00864614 -0.000174686 0.00884963 1.56587e-07 271.393 
-0.75 -0.05 -4.03618 7.08995 0.00907007 0.00874915 -0.000156943 0.00892262 1.57662e-07 271.767 
-0.83 -0.03 -2.71278 8.33819 0.00902505 0.00867373 -0.000163436 0.00887076 1.56956e-07 271.402 
-0.81 -0.03 -3.11105 7.90042 0.00903291 0.0086946 -0.000157703 0.00887987 1.57064e-07 271.495 
-0.79 -0.03 -3.1996 8.05771 0.00904262 0.00871978 -0.000157757 0.00889778 1.57418e-07 271.43 
-0.77 -0.03 -3.63685 7.59849 0.00905165 0.00872724 -0.000159426 0.00890205 1.57452e-07 271.501 
-0.95 -0.17 -0.714341 5.22577 0.00908157 0.00869934 -0.000142267 0.00890181 1.57419e-07 271.551 
-0.99 -0.15 -0.129145 4.98875 0.0090391 0.00870724 -0.00017236 0.00889184 1.57194e-07 271.634 
-0.89 -0.17 -2.05038 5.87248 0.00910804 0.00867748 -0.000123895 0.00891009 1.5741e-07 271.819 
-0.97 -0.15 -0.493786 5.39002 0.0090627 0.00870154 -0.000166619 0.00889459 1.57211e-07 271.69 
-0.95 -0.15 -0.870027 5.67796 0.009073 0.00868543 -0.000151126 0.00888997 1.57168e-07 271.622 
-0.93 -0.15 -1.19618 6.09654 0.00907838 0.00867304 -0.000140724 0.00889124 1.57292e-07 271.448 
-0.83 -0.17 -3.10148 5.62463 0.0091286 0.0087014 -0.000107235 0.00893099 1.57787e-07 271.806 
-0.91 -0.15 -1.49208 6.15502 0.00908924 0.00867856 -0.000138496 0.00890348 1.57382e-07 271.665 
-0.99 -0.13 -0.23257 5.36945 0.00904234 0.00870584 -0.00018866 0.00888786 1.5712e-07 271.642 
-0.89 -0.15 -1.72871 6.21312 0.0090869 0.00866081 -0.000128203 0.0088914 1.57182e-07 271.642 
-0.97 -0.13 -0.539853 5.77992 0.00904701 0.00868381 -0.000173783 0.00888202 1.57103e-07 271.492 
-0.87 -0.15 -2.33999 6.09898 0.00909934 0.00868136 -0.00012469 0.00891109 1.57434e-07 271.808 
-0.95 -0.13 -0.987978 6.08512 0.00905976 0.00867233 -0.000162874 0.0088826 1.57132e-07 271.461 
-0.77 -0.17 -4.16476 5.30104 0.00915374 0.00872376 -0.000105018 0.0089555 1.58217e-07 271.81 
-0.85 -0.15 -2.70644 6.21496 0.009117 0.00867788 -0.000118095 0.00891418 1.57631e-07 271.563 
-0.93 -0.13 -1.22663 6.25747 0.00907985 0.00867317 -0.000155029 0.00889559 1.57246e-07 271.66 
-0.83 -0.15 -2.99559 5.98469 0.00912593 0.00869467 -0.000116512 0.00892541 1.57765e-07 271.674 
-0.91 -0.13 -1.57551 6.48513 0.00908266 0.0086606 -0.000144992 0.00888876 1.57197e-07 271.536 
-0.99 -0.11 -0.0814842 5.6766 0.00904291 0.00869556 -0.000186487 0.00888448 1.57e-07 271.746 
-0.81 -0.15 -3.39965 5.89974 0.00913359 0.00870786 -0.000117778 0.00893415 1.57951e-07 271.62 
-0.89 -0.13 -1.95627 6.6156 0.00909095 0.00866418 -0.00013331 0.00889303 1.57251e-07 271.573 
-0.97 -0.11 -0.517056 6.20834 0.00903843 0.00867363 -0.000179241 0.00887683 1.56989e-07 271.531 
-0.79 -0.15 -3.75719 5.83519 0.009133 0.00872043 -0.000120962 0.00894447 1.58131e-07 271.624 
-0.87 -0.13 -2.33957 6.67487 0.00909752 0.00867036 -0.000134546 0.00890046 1.5744e-07 271.473 
-0.95 -0.11 -0.804976 6.36206 0.00904576 0.00866812 -0.000175145 0.0088734 1.57069e-07 271.288 
-0.77 -0.15 -4.13411 5.69568 0.00913423 0.00872052 -0.000118038 0.00894284 1.5811e-07 271.611 
-0.85 -0.13 -2.68832 6.38378 0.0091017 0.00867501 -0.000128248 0.00890332 1.57459e-07 271.528 
-0.93 -0.11 -1.2509 6.72893 0.00905295 0.00865778 -0.000165505 0.0088729 1.57011e-07 271.372 
-0.75 -0.15 -4.39279 5.56672 0.00914188 0.008742 -0.000114729 0.00895432 1.58263e-07 271.697 
-0.83 -0.13 -2.99869 6.35661 0.00911269 0.00869287 -0.000127431 0.00891798 1.57536e-07 271.842 
-0.91 -0.11 -1.64755 6.85095 0.00906146 0.00864968 -0.000151959 0.00887482 1.57003e-07 271.445 
-0.99 -0.09 -0.12489 5.91646 0.00900506 0.00868346 -0.000197349 0.00885923 1.56734e-07 271.433 
-0.81 -0.13 -3.46885 6.37616 0.00911501 0.00870622 -0.000122349 0.00892808 1.57875e-07 271.567 
-0.89 -0.11 -2.00195 7.02486 0.00907513 0.00865996 -0.000145122 0.00888614 1.57261e-07 271.346 
-0.97 -0.09 -0.331322 6.67341 0.00902674 0.00866661 -0.000189001 0.0088661 1.56817e-07 271.501 
-0.79 -0.13 -3.80386 6.23348 0.00912362 0.0087169 -0.000119827 0.00893567 1.57924e-07 271.712 
-0.87 -0.11 -2.25563 6.97877 0.00908219 0.00866408 -0.000139473 0.00889256 1.57311e-07 271.455 
-0.95 -0.09 -0.796358 6.75875 0.00903521 0.0086604 -0.00017888 0.00886999 1.56828e-07 271.6 
-0.77 -0.13 -4.05602 6.04223 0.0091251 0.00871779 -0.000119689 0.00893424 1.57992e-07 271.552 
-0.85 -0.11 -2.65632 6.81032 0.00908642 0.00867401 -0.00013205 0.00889561 1.57434e-07 271.336 
-0.93 -0.09 -1.13123 7.00196 0.00904007 0.0086483 -0.000172861 0.00886796 1.56937e-07 271.35 
-0.83 -0.11 -3.13623 6.79548 0.00908629 0.00868461 -0.000130211 0.00890335 1.57491e-07 271.474 
-0.91 -0.09 -1.46495 7.2661 0.00904419 0.00863995 -0.000160763 0.00886012 1.56853e-07 271.255 
-0.99 -0.07 -0.186066 6.17561 0.00900351 0.00867721 -0.000204319 0.00885763 1.56694e-07 271.453 
-0.81 -0.11 -3.42965 6.6106 0.00909637 0.00871008 -0.000130009 0.00892083 1.57549e-07 271.906 
-0.89 -0.09 -1.88966 7.37494 0.00905572 0.00865248 -0.000157917 0.00887235 1.57018e-07 271.343 
-0.97 -0.07 -0.507927 6.95913 0.00899862 0.00865538 -0.000200527 0.00884556 1.56471e-07 271.47 
-0.79 -0.11 -3.65954 6.59637 0.00910304 0.00871115 -0.000130831 0.00892566 1.57844e-07 271.545 
-0.87 -0.09 -2.12489 7.18228 0.00906872 0.00865626 -0.000147342 0.00888253 1.57223e-07 271.3 
-0.95 -0.07 -0.776963 7.19961 0.00900197 0.00865204 -0.000186976 0.00885106 1.56528e-07 271.54 
-0.77 -0.11 -4.03108 6.24337 0.0091202 0.00871779 -0.000132238 0.00893365 1.57971e-07 271.571 
-0.85 -0.09 -2.42592 7.22937 0.00907663 0.00866843 -0.000141174 0.00888921 1.57239e-07 271.477 
-0.93 -0.07 -1.28331 7.44909 0.00901396 0.00863685 -0.000179081 0.00885219 1.56633e-07 271.392 
-0.75 -0.11 -4.38341 6.08872 0.00913371 0.00874611 -0.000130199 0.00895422 1.58272e-07 271.678 
-0.83 -0.09 -2.77474 7.24819 0.00908537 0.00868244 -0.000137572 0.00890192 1.57444e-07 271.512 
-0.91 -0.07 -1.61876 7.60151 0.00902712 0.00863592 -0.000173628 0.00885625 1.56682e-07 271.432 
-0.99 -0.05 -0.146848 6.58909 0.00898185 0.00866628 -0.00021467 0.00884178 1.56405e-07 271.469 
-0.81 -0.09 -3.28523 6.99 0.00909574 0.00871214 -0.000139226 0.00891995 1.57721e-07 271.584 
-0.89 -0.07 -1.87707 7.6586 0.00903435 0.00864468 -0.000166732 0.00886309 1.56892e-07 271.278 
-0.97 -0.05 -0.583098 7.18522 0.00899713 0.00864915 -0.000203434 0.00884747 1.56536e-07 271.417 
-0.79 -0.09 -3.69875 6.87491 0.00909653 0.00871337 -0.000135918 0.00891839 1.57713e-07 271.549 
-0.87 -0.07 -2.3016 7.61054 0.00903886 0.00864289 -0.000156209 0.0088598 1.56736e-07 271.447 
-0.95 -0.05 -0.828948 7.62927 0.00900451 0.00864138 -0.000195017 0.00884593 1.56482e-07 271.461 
-0.77 -0.09 -4.01493 6.67131 0.00909449 0.00871747 -0.000134987 0.00892145 1.57749e-07 271.58 
-0.85 -0.07 -2.57399 7.46491 0.00904933 0.00865997 -0.000149281 0.00887702 1.56993e-07 271.53 
-0.93 -0.05 -1.17248 7.86701 0.00900238 0.00862816 -0.000181156 0.00884147 1.56446e-07 271.388 
-0.75 -0.09 -4.32514 6.50531 0.00909488 0.00874491 -0.000142731 0.00893431 1.57918e-07 271.682 
-0.83 -0.07 -3.02749 7.77859 0.00905985 0.00868823 -0.000145006 0.00889089 1.57126e-07 271.723 
-0.91 -0.05 -1.55315 7.92883 0.0090039 0.00862924 -0.000176605 0.00884141 1.56478e-07 271.33 
-0.99 -0.03 -0.208865 7.01403 0.00895568 0.00865112 -0.000225946 0.00882118 1.5608e-07 271.399 
-0.81 -0.07 -3.30149 7.41548 0.00905885 0.00870254 -0.000145075 0.00889961 1.57327e-07 271.643 
-0.89 -0.05 -1.82921 7.96635 0.00900568 0.0086363 -0.000172741 0.00884485 1.56577e-07 271.264 
-0.97 -0.03 -0.46715 7.46409 0.00896702 0.00863714 -0.000211121 0.0088234 1.562e-07 271.259 