ITEM: TIMESTEP
839500
ITEM: NUMBER OF CELLS
5000
ITEM: BOX BOUNDS ss ss pp
-1 1
-0.5 0.5
-0.5 0.5
ITEM: CELLS xc yc f_U[*] f_V[*] f_Tau[1] f_Tau[2] f_Tau[3] f_Press[*] f_Mrho[*] f_Ttra[*] 
-0.99 -0.49 -0.0893357 0.149877 0.00900218 0.00875105 -2.09033e-05 0.00888701 1.56924e-07 271.955 
-0.97 -0.49 -0.435951 0.109412 0.00897978 0.00876634 -3.41144e-05 0.00888379 1.56672e-07 272.293 
-0.95 -0.49 -0.735608 0.0631532 0.00897673 0.0087439 -3.2444e-05 0.00887661 1.5697e-07 271.556 
-0.93 -0.49 -0.832338 0.212461 0.00899004 0.00875967 -3.21542e-05 0.00889374 1.56962e-07 272.094 
-0.91 -0.49 -1.17123 -0.0568188 0.00899784 0.00870347 -1.68635e-05 0.00886534 1.56685e-07 271.706 
-0.99 -0.47 -0.0551231 0.269056 0.00900701 0.00875695 -1.95914e-05 0.00888677 1.5672e-07 272.301 
-0.89 -0.49 -1.59563 0.370884 0.00904594 0.00873598 -2.70965e-05 0.00890944 1.57133e-07 272.279 
-0.97 -0.47 0.0168777 0.632627 0.00901583 0.00877091 -3.93919e-05 0.00890046 1.56711e-07 272.736 
-0.87 -0.49 -1.88872 -0.0145769 0.00905664 0.00878743 -6.55957e-06 0.00891927 1.57462e-07 272.009 
-0.95 -0.47 -0.468443 0.643713 0.00903311 0.00876347 -3.76671e-05 0.00890725 1.57207e-07 272.083 
-0.85 -0.49 -1.91631 0.279535 0.00906841 0.00880246 -7.38147e-06 0.00893505 1.57594e-07 272.263 
-0.93 -0.47 -1.28119 0.407185 0.00903501 0.00873646 -3.55013e-05 0.00889677 1.56813e-07 272.446 
-0.83 -0.49 -1.97533 0.0590282 0.00907657 0.00879511 7.86712e-06 0.00893995 1.57751e-07 272.141 
-0.91 -0.47 -1.47738 0.446801 0.00903609 0.00872094 -3.39423e-05 0.00890518 1.57238e-07 271.967 
-0.99 -0.45 -0.132411 0.580061 0.00905509 0.00877133 -4.01805e-05 0.00892798 1.57387e-07 272.405 
-0.81 -0.49 -2.18869 0.274481 0.00906857 0.00877226 -2.59915e-06 0.00892034 1.57472e-07 272.025 
-0.89 -0.47 -2.00496 0.820934 0.00902569 0.00872925 -5.57186e-05 0.0088987 1.56975e-07 272.224 
-0.97 -0.45 -0.483407 0.61657 0.0090668 0.0087737 -3.62737e-05 0.00894093 1.57447e-07 272.696 
-0.79 -0.49 -2.82528 0.12434 0.00906647 0.00876311 2.37025e-05 0.00892778 1.57764e-07 271.748 
-0.87 -0.47 -2.30654 0.214875 0.00905513 0.00876023 -3.01687e-05 0.00893001 1.57355e-07 272.522 
-0.95 -0.45 -0.626548 1.26238 0.00904907 0.00877083 -4.78414e-05 0.00892294 1.57233e-07 272.517 
-0.77 -0.49 -3.03079 0.00344307 0.00905968 0.00878421 3.59386e-05 0.0089369 1.57651e-07 272.22 
-0.85 -0.47 -2.35829 0.158926 0.00907677 0.00879738 -8.03812e-06 0.00894981 1.57596e-07 272.709 
-0.93 -0.45 -0.901501 0.845102 0.00904648 0.00869915 -4.40387e-05 0.00889029 1.56894e-07 272.107 
-0.83 -0.47 -2.64381 0.405262 0.00907476 0.0087824 2.34377e-06 0.00893717 1.57519e-07 272.457 
-0.91 -0.45 -1.63414 1.03606 0.00906116 0.00874952 -2.55345e-05 0.00892205 1.57736e-07 271.622 
-0.99 -0.43 -0.435085 1.19217 0.00907285 0.00876525 -3.98371e-05 0.00893183 1.5747e-07 272.379 
-0.81 -0.47 -2.81856 0.502621 0.00907877 0.00877654 1.04235e-05 0.00894134 1.57705e-07 272.263 
-0.89 -0.45 -1.74992 0.843633 0.00906428 0.00872818 -4.47523e-05 0.00889862 1.57133e-07 271.947 
-0.97 -0.43 -0.784451 0.806597 0.00908223 0.00876654 -3.89734e-05 0.00893983 1.57478e-07 272.609 
-0.79 -0.47 -2.95788 0.590812 0.00908071 0.00873005 2.06246e-05 0.0089207 1.57276e-07 272.374 
-0.87 -0.45 -1.84687 0.560228 0.00904817 0.00874074 -3.42552e-05 0.00890041 1.57037e-07 272.169 
-0.95 -0.43 -0.845558 1.2532 0.0091017 0.00878329 -3.66447e-05 0.00894523 1.57841e-07 272.147 
-0.77 -0.47 -2.89334 -0.00587864 0.00909252 0.00880893 2.50538e-05 0.00896044 1.58257e-07 271.892 
-0.85 -0.45 -2.48571 0.41558 0.00905113 0.00877486 -2.09947e-05 0.00892487 1.57249e-07 272.549 
-0.93 -0.43 -1.21657 1.35459 0.00910234 0.00871121 -4.6341e-05 0.00892033 1.57349e-07 272.237 
-0.75 -0.47 -3.03334 -0.203116 0.0090963 0.00880674 1.09853e-05 0.00896763 1.57845e-07 272.821 
-0.83 -0.45 -2.61032 0.59657 0.00908201 0.00877858 -1.88891e-05 0.00894137 1.57608e-07 272.431 
-0.91 -0.43 -1.59168 1.18448 0.00910754 0.0087315 -4.54371e-05 0.00892244 1.57599e-07 271.869 
-0.99 -0.41 -0.146808 1.70148 0.00909119 0.00878222 -5.18246e-05 0.00895128 1.57964e-07 272.118 
-0.81 -0.45 -2.74845 0.846752 0.0090967 0.0087497 -3.88879e-06 0.00894402 1.57563e-07 272.589 
-0.89 -0.43 -1.30989 1.11311 0.0091035 0.00873022 -3.04631e-05 0.00891187 1.57241e-07 272.166 
-0.97 -0.41 -0.59618 1.20713 0.00910034 0.00877373 -5.94222e-05 0.0089399 1.57432e-07 272.69 
-0.79 -0.45 -3.01824 0.773955 0.00910174 0.00874018 1.38454e-05 0.00893245 1.57758e-07 271.9 
-0.87 -0.43 -1.56899 0.759257 0.00910621 0.00874328 -4.25666e-05 0.00893115 1.575e-07 272.306 
-0.95 -0.41 -0.809162 1.41301 0.00910415 0.0087692 -3.62757e-05 0.00893947 1.57511e-07 272.541 
-0.77 -0.45 -3.23132 0.0345005 0.00913089 0.00880168 4.62697e-06 0.00897279 1.58287e-07 272.215 
-0.85 -0.43 -1.81002 0.961637 0.00911261 0.00876782 -3.04523e-05 0.00894517 1.57641e-07 272.49 
-0.93 -0.41 -1.30321 1.9762 0.00909426 0.00871496 -3.78579e-05 0.00891631 1.57222e-07 272.335 
-0.75 -0.45 -3.57866 0.235568 0.00913855 0.00882064 1.1482e-05 0.00898088 1.58596e-07 271.929 
-0.83 -0.43 -2.40935 1.09077 0.00910119 0.00876885 -1.62657e-05 0.00894998 1.57568e-07 272.762 
-0.91 -0.41 -1.16681 1.19732 0.00909682 0.00872903 -4.2556e-05 0.00891931 1.57523e-07 271.905 
-0.99 -0.39 -0.358375 2.2003 0.00910502 0.00878815 -5.82891e-05 0.0089606 1.58071e-07 272.217 
-0.81 -0.43 -3.00697 0.847631 0.00910002 0.00872874 -5.27753e-06 0.00894309 1.57686e-07 272.348 
-0.89 -0.41 -1.5183 1.16149 0.00910333 0.00873736 -4.24874e-05 0.0089298 1.57312e-07 272.59 
-0.97 -0.39 -0.820688 1.44083 0.00910259 0.0087633 -4.59233e-05 0.00894068 1.57743e-07 272.177 
-0.79 -0.43 -3.12911 0.871396 0.00912533 0.00875345 -1.1986e-05 0.00895896 1.58083e-07 272.147 
-0.87 -0.41 -1.9744 1.11697 0.00910041 0.00873612 -2.79275e-05 0.00893195 1.57327e-07 272.63 
-0.95 -0.39 -1.08621 1.45347 0.00908833 0.00874749 -3.73936e-05 0.00892141 1.57174e-07 272.573 
-0.77 -0.43 -3.52627 0.700456 0.00914527 0.00878945 -1.05323e-05 0.00898257 1.58322e-07 272.451 
-0.85 -0.41 -2.31468 1.18677 0.00911088 0.0087524 -3.79159e-05 0.00894296 1.57648e-07 272.411 
-0.93 -0.39 -0.374466 2.07047 0.00910959 0.0087382 -3.12671e-05 0.00893326 1.57443e-07 272.47 
-0.83 -0.41 -2.51634 1.67112 0.00913339 0.00875387 -2.62449e-05 0.0089552 1.57733e-07 272.636 
-0.91 -0.39 -1.01681 1.62902 0.00910394 0.00872817 -5.85331e-05 0.00892998 1.57407e-07 272.432 
-0.99 -0.37 0.0586902 2.54786 0.00911397 0.00880261 -4.86048e-05 0.00898016 1.58662e-07 271.794 
-0.81 -0.41 -2.72427 1.32203 0.0091349 0.00873511 -1.80213e-05 0.00895858 1.58228e-07 271.885 
-0.89 -0.39 -1.34298 1.41251 0.00910678 0.00873605 -4.47997e-05 0.00895084 1.57708e-07 272.547 
-0.97 -0.37 -0.315807 1.96952 0.00911106 0.00875548 -4.45469e-05 0.0089566 1.58054e-07 272.124 
-0.79 -0.41 -3.20042 1.04748 0.0091541 0.00876473 -2.72188e-05 0.00896797 1.58314e-07 272.022 
-0.87 -0.39 -1.56523 1.30388 0.00912706 0.00874716 -5.29611e-05 0.00895171 1.57474e-07 272.977 
-0.95 -0.37 -0.712669 1.56408 0.0091329 0.00873866 -5.21384e-05 0.00893668 1.57781e-07 271.99 
-0.77 -0.41 -3.98272 1.15519 0.00916095 0.00878673 -2.77918e-05 0.00898529 1.58532e-07 272.173 
-0.85 -0.39 -2.14697 1.62241 0.00913924 0.00875143 -5.66388e-05 0.008962 1.58057e-07 272.284 
-0.93 -0.37 -1.26461 1.90625 0.00914174 0.00873946 -5.19642e-05 0.00895848 1.57918e-07 272.416 
-0.75 -0.41 -4.20199 1.41453 0.00917368 0.00878761 -1.47397e-05 0.00900139 1.58725e-07 272.33 
-0.83 -0.39 -2.44731 1.97374 0.00914259 0.00872408 -4.25116e-05 0.00895043 1.58118e-07 271.827 
-0.91 -0.37 -1.39903 2.17246 0.00915398 0.00873586 -4.79105e-05 0.00896108 1.57795e-07 272.708 
-0.99 -0.35 -0.0739228 2.62101 0.00907668 0.00878255 -7.33561e-05 0.00895521 1.58262e-07 271.725 
-0.81 -0.39 -2.6192 1.40648 0.00918002 0.00874172 -2.91743e-05 0.00897494 1.58021e-07 272.738 
-0.89 -0.37 -1.69448 1.70021 0.00916133 0.00872743 -5.42688e-05 0.00895296 1.577e-07 272.625 
-0.97 -0.35 -0.294688 2.5031 0.00910413 0.00874952 -6.64491e-05 0.00894081 1.58048e-07 271.656 
-0.79 -0.39 -3.23955 1.88159 0.0091753 0.00876546 -3.11363e-05 0.00898165 1.58177e-07 272.673 
-0.87 -0.37 -2.28756 2.07152 0.00917023 0.00874801 -5.72627e-05 0.00896043 1.57633e-07 272.969 
-0.95 -0.35 -0.337257 1.71979 0.00911583 0.00873654 -6.35063e-05 0.00892774 1.577e-07 271.857 
-0.77 -0.39 -3.78778 1.59867 0.00917639 0.0087834 -3.01047e-05 0.00899937 1.58889e-07 271.987 
-0.85 -0.37 -2.8047 1.9305 0.00915922 0.00875199 -5.05412e-05 0.00895555 1.5818e-07 271.876 
-0.93 -0.35 -0.984657 2.68812 0.00912452 0.00873084 -6.29534e-05 0.00894176 1.57734e-07 272.225 
-0.83 -0.37 -2.98823 1.93992 0.00914565 0.00871657 -4.52673e-05 0.00894605 1.57999e-07 271.899 
-0.91 -0.35 -1.19034 2.13244 0.00911691 0.00873972 -5.45858e-05 0.00892495 1.57467e-07 272.174 
-0.81 -0.37 -3.42325 1.72037 0.00914423 0.00872896 -3.77332e-05 0.00895355 1.57886e-07 272.322 
-0.89 -0.35 -1.7122 2.37939 0.00912313 0.00872428 -6.34837e-05 0.00893273 1.57426e-07 272.483 
-0.79 -0.37 -3.8438 2.29761 0.00915606 0.00877446 -3.46395e-05 0.00898199 1.58424e-07 272.259 
-0.87 -0.35 -2.27764 2.37691 0.00913243 0.00874223 -5.39026e-05 0.00895669 1.5793e-07 272.342 
-0.77 -0.37 -3.93805 2.26784 0.00915013 0.00877148 -2.44818e-05 0.00897222 1.58487e-07 271.855 
-0.85 -0.35 -2.45978 2.60644 0.00915794 0.00874139 -5.57098e-05 0.00896006 1.58175e-07 272.022 
-0.83 -0.35 -3.41424 2.4894 0.00917793 0.00872176 -4.91704e-05 0.00895999 1.58304e-07 271.799 
-0.81 -0.35 -4.03759 2.26487 0.00918402 0.00872465 -5.91617e-05 0.00896797 1.5824e-07 272.15 
-0.79 -0.35 -4.03361 2.27818 0.00921601 0.00875506 -3.60395e-05 0.00898793 1.58527e-07 272.262 
-0.77 -0.35 -4.15196 2.47517 0.00922417 0.00877618 -2.81634e-05 0.00900277 1.58616e-07 272.559 
-0.75 -0.35 -4.28786 2.55276 0.00922642 0.00877226 -2.48561e-05 0.00901583 1.59176e-07 271.994 
-0.75 -0.49 -2.83995 -0.185522 0.00906809 0.00879801 8.7055e-06 0.00893751 1.57537e-07 272.436 
-0.75 -0.43 -4.23166 0.718766 0.00916407 0.00881851 -5.6308e-07 0.00900511 1.58764e-07 272.374 
-0.75 -0.39 -4.89659 1.81602 0.00916972 0.00877431 -1.37547e-05 0.00899196 1.58432e-07 272.547 
-0.75 -0.37 -4.01787 2.28218 0.0091506 0.00876252 -2.65386e-05 0.00896478 1.5819e-07 272.139 
-0.77 -0.33 -4.35167 2.50891 0.00916014 0.00874293 -4.06921e-05 0.00894714 1.58077e-07 271.798 
-0.73 -0.49 -2.74705 0.231632 0.00907513 0.00881358 2.23317e-05 0.00895732 1.57725e-07 272.715 
-0.73 -0.47 -3.41193 0.219307 0.00910523 0.0087994 1.07278e-05 0.00896994 1.5809e-07 272.468 
-0.73 -0.45 -3.83946 0.419512 0.00913495 0.00880507 3.37704e-06 0.00897419 1.58602e-07 271.716 
-0.73 -0.43 -4.93588 1.05097 0.00916404 0.0088134 4.76883e-06 0.00899648 1.58708e-07 272.21 
-0.73 -0.41 -4.74553 1.26337 0.00918845 0.00882058 4.78836e-06 0.00901532 1.58932e-07 272.396 
-0.73 -0.39 -4.74956 1.50763 0.00917019 0.00879525 -9.12114e-06 0.00899732 1.58482e-07 272.624 
-0.73 -0.37 -4.69376 1.7037 0.00917218 0.00880475 -3.35227e-05 0.00899747 1.58802e-07 272.078 
-0.73 -0.35 -4.33954 2.12033 0.00920915 0.00880619 -2.64396e-05 0.00901835 1.58942e-07 272.469 
-0.81 -0.29 -3.2173 3.75242 0.00915465 0.00869507 -7.37275e-05 0.00892719 1.57556e-07 272.089 
-0.89 -0.27 -2.03262 3.88014 0.00910498 0.00868829 -9.13839e-05 0.00890705 1.57388e-07 271.764 
-0.97 -0.25 -0.480665 3.91188 0.0090894 0.00871809 -0.000107948 0.00890855 1.57383e-07 271.818 
-0.83 -0.29 -2.95589 3.59079 0.0091405 0.00872738 -8.08888e-05 0.00894229 1.57397e-07 272.824 
-0.91 -0.27 -1.26602 4.08434 0.00911658 0.00871091 -9.57464e-05 0.00892687 1.5784e-07 271.59 
-0.99 -0.25 -0.0945142 3.91439 0.00906926 0.00872238 -0.000104885 0.00892002 1.57522e-07 271.928 
-0.79 -0.29 -3.73617 3.42712 0.00918169 0.00873212 -6.2757e-05 0.00895195 1.58279e-07 271.597 
-0.87 -0.27 -2.38073 3.89553 0.00913164 0.00874701 -7.75105e-05 0.00894857 1.57926e-07 272.101 
-0.95 -0.25 -0.285878 4.2109 0.00910505 0.00874837 -0.000119854 0.0089394 1.57861e-07 271.933 
-0.77 -0.29 -4.13898 3.381 0.00919164 0.0087467 -4.76101e-05 0.00897397 1.58659e-07 271.614 
-0.85 -0.27 -2.56879 3.94759 0.00914282 0.00872645 -7.06609e-05 0.00893706 1.57618e-07 272.283 
-0.93 -0.25 -0.609546 4.0618 0.00910099 0.00869752 -0.000116363 0.00890356 1.57367e-07 271.695 
-0.75 -0.29 -4.80337 2.99309 0.00918556 0.00876399 -5.53011e-05 0.00898925 1.58637e-07 272.113 
-0.83 -0.27 -2.98429 3.7907 0.0091623 0.00873912 -6.90339e-05 0.00896408 1.58222e-07 272.064 
-0.91 -0.25 -1.30897 4.20868 0.00911845 0.00870969 -9.20047e-05 0.00892606 1.57701e-07 271.804 
-0.99 -0.23 0.00937324 4.21999 0.00907433 0.00872819 -0.000134155 0.00893096 1.57478e-07 272.339 
-0.81 -0.27 -3.36327 3.98872 0.00915224 0.00870235 -8.92024e-05 0.0089277 1.57569e-07 272.082 
-0.89 -0.25 -1.55651 4.32961 0.00911329 0.00868431 -9.72511e-05 0.00890818 1.57396e-07 271.786 
-0.97 -0.23 -0.178322 4.08491 0.00910355 0.00873742 -0.0001353 0.00893469 1.57816e-07 271.867 
-0.79 -0.27 -3.81424 3.88756 0.00916087 0.00871124 -8.22832e-05 0.0089218 1.5788e-07 271.366 
-0.87 -0.25 -2.21518 4.59071 0.00914295 0.00872813 -9.34224e-05 0.00894698 1.5808e-07 271.788 
-0.95 -0.23 -0.648681 4.24849 0.00911728 0.00872581 -0.00013187 0.00893121 1.57588e-07 272.156 
-0.77 -0.27 -4.01635 3.79392 0.00917693 0.00873975 -5.76458e-05 0.00895449 1.58225e-07 271.766 
-0.85 -0.25 -2.66949 4.31152 0.00916096 0.00873792 -0.000101464 0.00895828 1.57912e-07 272.421 
-0.93 -0.23 -0.892762 4.44156 0.00911197 0.00869831 -0.000111449 0.00891422 1.57471e-07 271.84 
-0.83 -0.25 -3.01548 4.21082 0.00917448 0.00871172 -8.65328e-05 0.00894523 1.58107e-07 271.688 
-0.91 -0.23 -1.19418 4.80029 0.00911386 0.0086853 -0.000105268 0.00891158 1.57301e-07 272.053 
-0.99 -0.21 0.187671 3.93772 0.00914774 0.0087423 -0.000139226 0.0089725 1.58478e-07 271.878 
-0.81 -0.25 -3.43672 4.23928 0.00918219 0.00872143 -7.45512e-05 0.00896331 1.58202e-07 272.074 
-0.89 -0.23 -1.96335 5.03461 0.00914316 0.00869253 -0.000105866 0.00893356 1.57693e-07 272.046 
-0.97 -0.21 0.380651 4.45283 0.00913349 0.00871667 -0.000138358 0.00894131 1.58099e-07 271.582 
-0.79 -0.25 -3.85932 4.45792 0.00917512 0.00870056 -8.77104e-05 0.00894364 1.58267e-07 271.366 
-0.87 -0.23 -2.18753 4.76584 0.00915295 0.00873299 -0.000120429 0.00894831 1.58071e-07 271.844 
-0.95 -0.21 -0.207898 4.78687 0.00911376 0.00870952 -0.000123395 0.00892529 1.574e-07 272.3 
-0.77 -0.25 -4.57321 3.82712 0.00918815 0.00872211 -8.02117e-05 0.00895076 1.58189e-07 271.716 
-0.85 -0.23 -2.6 4.92182 0.00913984 0.00873235 -9.70283e-05 0.00894199 1.57809e-07 272.103 
-0.93 -0.21 -1.04222 4.95555 0.00912447 0.00868661 -0.000110668 0.00891113 1.57193e-07 272.226 
-0.83 -0.23 -3.00257 4.3855 0.00912915 0.00870248 -9.08563e-05 0.00892519 1.5766e-07 271.847 
-0.91 -0.21 -1.41824 5.15676 0.00914328 0.0087016 -0.000129848 0.00893309 1.57742e-07 271.948 
-0.99 -0.19 -0.121297 4.18582 0.00908093 0.00872792 -0.000148425 0.00892099 1.576e-07 271.824 
-0.81 -0.23 -3.41982 4.50033 0.00915646 0.00871933 -9.88286e-05 0.00895575 1.58011e-07 272.174 
-0.89 -0.21 -1.74753 5.44242 0.00915166 0.00869846 -0.000122588 0.00894717 1.57822e-07 272.238 
-0.97 -0.19 -0.764791 4.58057 0.00910155 0.00870729 -0.00014251 0.00890585 1.57586e-07 271.387 
-0.79 -0.23 -3.52968 4.85303 0.00917708 0.00870228 -8.97995e-05 0.00894408 1.57927e-07 271.962 
-0.87 -0.21 -2.04727 5.16874 0.00914332 0.00870008 -0.000114167 0.0089344 1.57851e-07 271.799 
-0.95 -0.19 -0.726438 5.43191 0.00910574 0.00870687 -0.000116236 0.00890509 1.57411e-07 271.665 
-0.77 -0.23 -3.84013 4.4613 0.00917696 0.00872322 -9.13756e-05 0.00895731 1.5819e-07 271.912 
-0.85 -0.21 -2.82771 5.36385 0.00915762 0.00872331 -8.98284e-05 0.00894947 1.5781e-07 272.329 
-0.93 -0.19 -0.696902 5.30402 0.00912238 0.00869104 -0.000129221 0.00892162 1.57741e-07 271.6 
-0.75 -0.23 -4.5667 3.99894 0.00918393 0.00875531 -8.23446e-05 0.00898398 1.58745e-07 271.769 
-0.83 -0.21 -3.42703 5.02238 0.00916738 0.00872738 -9.84801e-05 0.00895863 1.5795e-07 272.365 
-0.91 -0.19 -1.1935 5.8156 0.0091255 0.00869563 -0.000127114 0.00891365 1.57607e-07 271.588 
-0.81 -0.21 -3.85898 4.81176 0.0091462 0.00870107 -9.56124e-05 0.00894564 1.58054e-07 271.791 
-0.89 -0.19 -1.68317 5.44579 0.00913099 0.00869732 -0.000126768 0.00893093 1.57638e-07 272.061 
-0.79 -0.21 -4.27 5.13849 0.00914358 0.00870141 -0.000102273 0.00893841 1.57863e-07 271.901 
-0.87 -0.19 -2.18732 5.76371 0.00913625 0.00869498 -0.00011176 0.00893089 1.57748e-07 271.869 
-0.77 -0.21 -4.38949 4.93613 0.00916224 0.00871992 -9.71588e-05 0.00895085 1.5807e-07 271.923 
-0.85 -0.19 -2.45391 5.90271 0.00913126 0.0086921 -0.000105081 0.00891944 1.57914e-07 271.236 
-0.75 -0.21 -4.63166 4.38605 0.00917715 0.00874267 -9.91265e-05 0.00898154 1.5866e-07 271.84 
-0.83 -0.19 -2.67898 5.471 0.00912256 0.00873168 -8.46013e-05 0.00894036 1.5778e-07 272.103 
-0.81 -0.19 -3.34522 5.13436 0.00913549 0.00870637 -0.000106281 0.00893001 1.57804e-07 271.746 
-0.79 -0.19 -3.64813 5.4225 0.00914701 0.00871218 -9.63191e-05 0.00894188 1.58268e-07 271.31 
-0.77 -0.19 -3.85725 5.34353 0.00914122 0.00872373 -0.000115097 0.00895665 1.58579e-07 271.225 
-0.99 -0.33 -0.0278146 2.6941 0.00909707 0.00877669 -8.73722e-05 0.00895777 1.58197e-07 271.914 
-0.97 -0.33 -0.193943 2.73567 0.00911582 0.00874392 -9.03198e-05 0.00894489 1.57937e-07 271.97 
-0.91 -0.33 -1.35024 2.7352 0.00915656 0.00873862 -6.743e-05 0.00894196 1.57827e-07 272.071 
-0.99 -0.31 -0.280705 3.12554 0.00910513 0.00877169 -8.79733e-05 0.00894801 1.58104e-07 271.777 
-0.97 -0.31 -0.504035 2.72502 0.00909841 0.00873328 -7.56185e-05 0.00892896 1.57652e-07 271.976 
-0.87 -0.33 -2.40835 2.7372 0.00915542 0.00874913 -7.65244e-05 0.00896385 1.58321e-07 271.885 
-0.95 -0.31 -1.16045 2.92472 0.00909884 0.00872089 -8.07808e-05 0.00892321 1.57712e-07 271.698 
-0.85 -0.33 -2.62712 2.88186 0.00914896 0.00873118 -6.37765e-05 0.00895845 1.58103e-07 272.096 
-0.93 -0.31 -1.44763 3.14183 0.00912387 0.00873387 -8.98966e-05 0.0089328 1.57619e-07 272.15 
-0.91 -0.31 -1.88651 3.08065 0.00915722 0.0087302 -6.89871e-05 0.00894134 1.57668e-07 272.326 
-0.99 -0.29 -0.115902 3.30774 0.00905542 0.00874848 -0.000110499 0.0089242 1.57635e-07 271.861 
-0.81 -0.33 -3.48497 2.90125 0.00915369 0.0087188 -5.78856e-05 0.00895274 1.57785e-07 272.47 
-0.89 -0.31 -2.139 3.31212 0.00917182 0.0087343 -6.77058e-05 0.00896135 1.58211e-07 271.999 
-0.97 -0.29 -0.537037 3.39542 0.00908974 0.00872609 -9.24059e-05 0.0089186 1.57779e-07 271.442 
-0.87 -0.31 -2.32065 3.24463 0.00915958 0.00873466 -7.19891e-05 0.00896103 1.58201e-07 272.006 
-0.95 -0.29 -0.829346 3.40822 0.00911569 0.00871749 -9.2812e-05 0.00892938 1.57598e-07 272.083 
-0.85 -0.31 -2.68056 3.06411 0.00915695 0.00872461 -6.00019e-05 0.00895356 1.57996e-07 272.133 
-0.93 -0.29 -1.33429 3.24791 0.00912425 0.00874653 -0.000100612 0.00894342 1.57812e-07 272.141 
-0.83 -0.31 -3.01328 3.40971 0.00916496 0.00872839 -6.2461e-05 0.00896102 1.577e-07 272.869 
-0.91 -0.29 -1.67564 3.64695 0.00910502 0.0086962 -9.54772e-05 0.00891753 1.57521e-07 271.854 
-0.99 -0.27 -0.111458 3.58996 0.00910158 0.00873967 -0.000107971 0.00893846 1.57741e-07 272.112 
-0.81 -0.31 -3.3712 3.21903 0.00916228 0.00870622 -5.67442e-05 0.00894803 1.57572e-07 272.696 
-0.89 -0.29 -1.85581 3.42704 0.00913059 0.00872749 -7.94263e-05 0.00892904 1.57921e-07 271.517 
-0.97 -0.27 -0.349992 3.79484 0.00907806 0.00871279 -0.000111122 0.00891415 1.5733e-07 272.081 
-0.79 -0.31 -3.80621 3.01713 0.00915783 0.00874533 -5.39756e-05 0.00895862 1.58238e-07 271.87 
-0.87 -0.29 -2.37651 3.75063 0.00912934 0.00873396 -4.97966e-05 0.0089322 1.57902e-07 271.645 
-0.95 -0.27 -0.752824 3.75535 0.00908494 0.00872354 -0.000107007 0.00890832 1.57491e-07 271.625 
-0.77 -0.31 -4.114 2.91601 0.0091605 0.00874175 -5.57486e-05 0.00895249 1.58496e-07 271.241 
-0.85 -0.29 -2.76419 3.62121 0.00914224 0.00872272 -6.61107e-05 0.00894361 1.58017e-07 271.793 
-0.93 -0.27 -1.07193 3.48743 0.00910595 0.00872524 -0.000100677 0.00892783 1.57364e-07 272.441 
-0.95 -0.33 -0.710657 2.22841 0.00912509 0.00872399 -6.27813e-05 0.00893324 1.57784e-07 271.88 
-0.93 -0.33 -1.10139 3.0226 0.00913776 0.00873358 -5.63033e-05 0.00894402 1.57649e-07 272.44 
-0.89 -0.33 -2.10194 2.84348 0.00915009 0.00872246 -5.82748e-05 0.00893663 1.57571e-07 272.35 
-0.83 -0.33 -2.94819 3.08362 0.00914139 0.00872025 -6.20879e-05 0.00895115 1.57986e-07 272.076 
-0.75 -0.31 -4.53643 2.63303 0.00917824 0.00876619 -3.92114e-05 0.00898235 1.58683e-07 271.826 
-0.75 -0.27 -4.12636 3.68958 0.00920221 0.00877359 -6.2767e-05 0.00897521 1.58582e-07 271.782 
-0.75 -0.25 -4.57237 3.78654 0.00919726 0.00877994 -6.14708e-05 0.00898451 1.58815e-07 271.664 
-0.75 -0.19 -4.43306 4.76976 0.00914162 0.0087223 -0.000102845 0.00895313 1.58539e-07 271.187 
-0.79 -0.33 -4.00797 2.51925 0.00914041 0.00874885 -4.59774e-05 0.00895065 1.57921e-07 272.173 
-0.75 -0.33 -4.42548 2.38252 0.00917645 0.00877742 -2.56434e-05 0.00898848 1.58829e-07 271.76 
-0.81 -0.17 -3.46823 5.96404 0.00913714 0.00871534 -9.8228e-05 0.00892417 1.57976e-07 271.273 
-0.79 -0.17 -4.08184 5.56161 0.00913377 0.00872753 -0.000111103 0.00894558 1.58112e-07 271.69 
-0.75 -0.17 -4.0826 5.4706 0.00916401 0.00870746 -0.000115032 0.00895191 1.58394e-07 271.398 
-0.73 -0.31 -5.01022 2.64442 0.00918784 0.00879639 -4.94402e-05 0.00900172 1.58721e-07 272.346 
-0.73 -0.29 -4.77822 2.74597 0.00919779 0.00879784 -4.92283e-05 0.00900993 1.59256e-07 271.679 
-0.73 -0.27 -5.00381 2.76677 0.00920452 0.00878081 -6.6701e-05 0.00900656 1.58864e-07 272.248 
-0.73 -0.25 -4.53147 3.37494 0.0092016 0.00877518 -6.86811e-05 0.00900417 1.59204e-07 271.594 
-0.73 -0.23 -4.96561 3.76436 0.00919132 0.00878083 -6.53088e-05 0.00899027 1.5877e-07 271.916 
-0.73 -0.21 -5.04515 3.95923 0.00919917 0.00876708 -8.01985e-05 0.00898073 1.5852e-07 272.055 
-0.73 -0.19 -4.68217 4.61352 0.00914573 0.00876453 -9.41928e-05 0.00896419 1.58543e-07 271.514 
-0.79 -0.05 -3.06693 7.56072 0.00905162 0.00870081 -0.000157795 0.0088763 1.5732e-07 270.943 
-0.87 -0.03 -2.25357 8.79427 0.00899158 0.0086146 -0.000188429 0.00881833 1.55929e-07 271.574 
-0.83 -0.05 -2.49673 8.10488 0.00901508 0.00867995 -0.000146646 0.0088747 1.56882e-07 271.65 
-0.91 -0.03 -1.76946 8.13105 0.00899182 0.00863558 -0.000184461 0.00883122 1.56154e-07 271.579 
-0.81 -0.05 -2.51174 7.72925 0.00904066 0.00868355 -0.000133364 0.00888059 1.57385e-07 270.962 
-0.89 -0.03 -1.79627 8.47002 0.00898619 0.00864739 -0.000169832 0.00883473 1.56189e-07 271.627 
-0.77 -0.05 -3.50844 6.91488 0.00906541 0.00874513 -0.000153119 0.00891737 1.57758e-07 271.441 
-0.85 -0.03 -2.14658 7.83513 0.00899024 0.0086366 -0.000172847 0.00883727 1.56473e-07 271.212 
-0.75 -0.05 -3.67864 6.84488 0.00907291 0.00876148 -0.000169066 0.00892881 1.57889e-07 271.564 
-0.83 -0.03 -2.28827 8.24468 0.00901026 0.00866953 -0.000164577 0.00885434 1.56841e-07 271.099 
-0.81 -0.03 -2.82826 7.99447 0.009008 0.0086813 -0.000154589 0.00886334 1.57163e-07 270.818 
-0.79 -0.03 -3.0142 8.3449 0.00903706 0.00871101 -0.000158135 0.00888648 1.57433e-07 271.06 
-0.77 -0.03 -3.4364 7.24052 0.0090351 0.00875122 -0.000161424 0.0089031 1.57504e-07 271.444 
-0.95 -0.17 -0.732094 5.41448 0.00907194 0.00869781 -0.000152663 0.00889363 1.57316e-07 271.479 
-0.99 -0.15 -0.165111 4.5465 0.00904902 0.00871346 -0.000168105 0.00890049 1.57341e-07 271.645 
-0.89 -0.17 -1.48412 5.82175 0.00911455 0.00868725 -0.000124101 0.00890952 1.57093e-07 272.35 
-0.97 -0.15 -0.51457 5.6226 0.0090682 0.0086998 -0.000169103 0.0089022 1.5731e-07 271.751 
-0.95 -0.15 -0.98 5.86227 0.0090648 0.008689 -0.000164506 0.00890438 1.57512e-07 271.469 
-0.93 -0.15 -1.37481 5.50065 0.00906335 0.00866914 -0.000157975 0.00889571 1.57223e-07 271.703 
-0.83 -0.17 -2.71955 6.02289 0.00913246 0.00872916 -9.7858e-05 0.00893908 1.58108e-07 271.5 
-0.91 -0.15 -1.52427 6.43479 0.00908803 0.00869144 -0.000154689 0.00889645 1.57116e-07 271.911 
-0.99 -0.13 -0.45859 4.96155 0.00905317 0.00871331 -0.000182603 0.00889587 1.57558e-07 271.13 
-0.89 -0.15 -1.55331 6.29476 0.00909095 0.00866434 -0.000122762 0.00889737 1.57242e-07 271.721 
-0.97 -0.13 -0.595146 5.92504 0.00906857 0.00869075 -0.000161067 0.00889242 1.57345e-07 271.392 
-0.87 -0.15 -2.0289 6.42106 0.00909802 0.00868159 -0.000110376 0.0089157 1.57337e-07 272.116 
-0.95 -0.13 -0.778501 6.39391 0.00908774 0.00867753 -0.000175097 0.00890555 1.57505e-07 271.516 
-0.77 -0.17 -4.00093 5.35973 0.00915301 0.00872495 -0.000110506 0.00895132 1.58414e-07 271.346 
-0.85 -0.15 -2.69412 6.59559 0.00911125 0.00867791 -0.000111318 0.00890997 1.57615e-07 271.463 
-0.93 -0.13 -1.23894 5.8632 0.0090921 0.00867769 -0.000160101 0.00890457 1.57238e-07 271.947 
-0.83 -0.15 -3.3537 6.24698 0.00912805 0.00872099 -0.000120299 0.00894172 1.58102e-07 271.59 
-0.91 -0.13 -1.80438 6.58355 0.00908355 0.00867993 -0.000156411 0.00889981 1.57244e-07 271.792 
-0.99 -0.11 -0.0411807 5.30661 0.00904905 0.00868698 -0.000183311 0.00888416 1.57089e-07 271.581 
-0.81 -0.15 -3.34156 6.42013 0.00914328 0.00872551 -0.000110141 0.00894646 1.57976e-07 271.952 
-0.89 -0.13 -2.26161 6.33921 0.0090919 0.00863871 -0.000142466 0.00888721 1.57377e-07 271.178 
-0.97 -0.11 -0.689356 6.25651 0.0090527 0.00869799 -0.000193633 0.0088973 1.57398e-07 271.449 
-0.79 -0.15 -3.71166 5.71151 0.00914909 0.00874075 -0.000122543 0.0089495 1.5827e-07 271.538 
-0.87 -0.13 -2.57172 6.87434 0.00910319 0.00866217 -0.000121839 0.00891035 1.57674e-07 271.371 
-0.95 -0.11 -0.824577 6.46491 0.00906115 0.00866568 -0.000178351 0.00888544 1.57258e-07 271.33 
-0.77 -0.15 -3.96029 5.3557 0.00915891 0.00871335 -0.00011901 0.00894693 1.58554e-07 270.974 
-0.85 -0.13 -2.71209 6.99266 0.00913071 0.00869684 -0.000132876 0.00892718 1.57927e-07 271.45 
-0.93 -0.11 -1.08489 6.66807 0.00907764 0.00866568 -0.000167764 0.00890312 1.57471e-07 271.502 
-0.75 -0.15 -4.18678 5.80195 0.00914164 0.00871928 -0.000111876 0.00894275 1.58406e-07 271.1 
-0.83 -0.13 -2.80401 6.69994 0.00914533 0.00870361 -0.000128229 0.00894893 1.57925e-07 272.114 
-0.91 -0.11 -1.69814 6.90096 0.00907989 0.00867307 -0.000158541 0.00889028 1.57139e-07 271.683 
-0.99 -0.09 0.11091 5.63851 0.00899174 0.00867477 -0.000221243 0.00885412 1.5645e-07 271.769 
-0.81 -0.13 -3.28496 6.71651 0.00912415 0.0087179 -0.000110644 0.00893467 1.5807e-07 271.431 
-0.89 -0.11 -2.1882 7.11588 0.0090749 0.00862684 -0.000145202 0.00886284 1.57086e-07 270.936 
-0.97 -0.09 -0.51469 6.9646 0.00903377 0.00868629 -0.000198782 0.00889076 1.57332e-07 271.365 
-0.79 -0.13 -3.23957 6.00937 0.00912434 0.00874867 -0.000121685 0.00893943 1.57915e-07 271.841 
-0.87 -0.11 -2.88955 7.1901 0.00908394 0.0086571 -0.000146294 0.00889335 1.57557e-07 271.056 
-0.95 -0.09 -0.869463 6.51928 0.0090487 0.00867023 -0.000183394 0.0088905 1.5722e-07 271.55 
-0.77 -0.13 -3.86321 5.69651 0.00910812 0.00869193 -0.000119796 0.00890861 1.57739e-07 271.207 
-0.85 -0.11 -3.02013 6.94195 0.00910307 0.00869931 -0.000141332 0.00891121 1.57689e-07 271.373 
-0.93 -0.09 -1.04923 7.07187 0.00902927 0.00864669 -0.000183058 0.00886384 1.56865e-07 271.348 
-0.83 -0.11 -3.20168 7.31393 0.00909628 0.00868474 -0.000129142 0.00890805 1.57396e-07 271.782 
-0.91 -0.09 -1.28289 7.41379 0.0090276 0.00864254 -0.000148043 0.00886227 1.56554e-07 271.839 
-0.99 -0.07 -0.822127 6.29037 0.00901467 0.00867186 -0.000218196 0.00885367 1.56548e-07 271.586 
-0.81 -0.11 -3.32083 6.29228 0.00912752 0.00870904 -0.000130355 0.00893093 1.57547e-07 272.218 
-0.89 -0.09 -1.87806 7.66997 0.00903634 0.00864171 -0.000162257 0.00886105 1.56852e-07 271.285 
-0.97 -0.07 -1.01745 6.86923 0.00899059 0.00865207 -0.000211707 0.00884014 1.56427e-07 271.38 
-0.79 -0.11 -3.39205 6.46083 0.00913675 0.00873292 -0.000111371 0.00894748 1.58394e-07 271.264 
-0.87 -0.09 -2.16775 7.66493 0.00906752 0.00865324 -0.00017162 0.00887993 1.57224e-07 271.22 
-0.95 -0.07 -0.934707 6.88327 0.00899505 0.00866616 -0.000182162 0.00884823 1.56342e-07 271.777 
-0.77 -0.11 -3.98712 6.34435 0.00913787 0.00870626 -0.000116913 0.0089421 1.58103e-07 271.599 
-0.85 -0.09 -2.43464 7.11339 0.00906202 0.00866901 -0.000149445 0.00887809 1.57088e-07 271.398 
-0.93 -0.07 -1.52458 7.48049 0.00900505 0.00863936 -0.000177654 0.00884995 1.56519e-07 271.522 
-0.75 -0.11 -4.37141 6.01817 0.00913844 0.00874087 -0.000131337 0.00896117 1.58477e-07 271.538 
-0.83 -0.09 -2.8354 7.16471 0.00908134 0.00870197 -0.000140865 0.00890611 1.57454e-07 271.621 
-0.91 -0.07 -1.7668 7.58036 0.00901725 0.00862547 -0.000174554 0.00885073 1.5649e-07 271.595 
-0.99 -0.05 0.202497 6.86109 0.00896229 0.00865189 -0.000215485 0.00881871 1.56112e-07 271.268 
-0.81 -0.09 -3.04704 6.98484 0.00908262 0.00870217 -0.000146632 0.00890458 1.57654e-07 271.231 
-0.89 -0.07 -1.79974 7.94677 0.00903148 0.00866973 -0.000178395 0.00887112 1.56894e-07 271.521 
-0.97 -0.05 -0.322753 6.93446 0.0089705 0.00865167 -0.000203376 0.0088303 1.56312e-07 271.277 
-0.79 -0.09 -3.66932 6.60855 0.00909016 0.00872115 -0.000118558 0.00891013 1.57798e-07 271.151 
-0.87 -0.07 -2.08375 7.99399 0.00901692 0.00862092 -0.000160704 0.00884985 1.56756e-07 271.108 
-0.95 -0.05 -0.638959 7.41416 0.00896866 0.00863985 -0.000205463 0.00883304 1.56248e-07 271.474 
-0.77 -0.09 -3.90512 6.69418 0.00910156 0.00871476 -0.000113456 0.00893091 1.58028e-07 271.388 
-0.85 -0.07 -2.57887 7.72372 0.00903626 0.00866737 -0.000148546 0.0088665 1.56762e-07 271.608 
-0.93 -0.05 -1.21308 7.81187 0.00898297 0.0086264 -0.000172565 0.00882953 1.56425e-07 271.058 
-0.75 -0.09 -4.22654 6.50244 0.0090926 0.00874378 -0.00013598 0.00894074 1.57936e-07 271.846 
-0.83 -0.07 -2.86886 7.71901 0.00904009 0.00869134 -0.000147729 0.00888601 1.57008e-07 271.779 
-0.91 -0.05 -1.64076 7.93923 0.00898958 0.00863767 -0.000178209 0.00884407 1.56455e-07 271.452 
-0.99 -0.03 -0.0198214 6.90556 0.00895466 0.00865547 -0.000220573 0.00881373 1.56037e-07 271.246 
-0.81 -0.07 -3.54636 7.44842 0.00902863 0.0086944 -0.00014855 0.00887761 1.57209e-07 271.175 
-0.89 -0.05 -1.93048 8.23165 0.00899867 0.00865781 -0.000184728 0.00885353 1.56867e-07 271.029 
-0.97 -0.03 -0.250638 7.41192 0.008953 0.0086279 -0.000214383 0.00881383 1.56122e-07 271.101 