ITEM: TIMESTEP
1043500
ITEM: NUMBER OF CELLS
5000
ITEM: BOX BOUNDS ss ss pp
-1 1
-0.5 0.5
-0.5 0.5
ITEM: CELLS xc yc f_U[*] f_V[*] f_Tau[1] f_Tau[2] f_Tau[3] f_Press[*] f_Mrho[*] f_Ttra[*] 
-0.99 -0.49 -0.209127 0.276679 0.00899706 0.00874928 -2.66331e-05 0.00888648 1.56758e-07 272.226 
-0.97 -0.49 -0.521147 0.045564 0.00899293 0.00874757 -3.11112e-05 0.00888306 1.56569e-07 272.45 
-0.95 -0.49 -0.638541 0.0571306 0.00899248 0.00875159 -3.12821e-05 0.0088819 1.5667e-07 272.238 
-0.93 -0.49 -0.861942 0.147636 0.00900046 0.0087489 -2.2812e-05 0.00888308 1.56744e-07 272.146 
-0.91 -0.49 -1.16777 0.110891 0.00900213 0.00872617 -2.10268e-05 0.00886866 1.56477e-07 272.168 
-0.99 -0.47 -0.176252 0.522174 0.00901452 0.00876927 -1.65937e-05 0.00890305 1.5701e-07 272.296 
-0.89 -0.49 -1.55677 0.234714 0.00901558 0.00873977 -2.36662e-05 0.00888153 1.5676e-07 272.072 
-0.97 -0.47 -0.425557 0.321925 0.00901727 0.00874679 -3.35197e-05 0.00889611 1.56804e-07 272.441 
-0.87 -0.49 -1.72219 0.02257 0.00903594 0.00876005 -1.62795e-05 0.00890002 1.57055e-07 272.126 
-0.95 -0.47 -0.686696 0.318317 0.00902424 0.00875327 -3.17918e-05 0.00889846 1.56898e-07 272.35 
-0.85 -0.49 -1.94313 0.113526 0.00903835 0.00875415 -9.25309e-06 0.00889862 1.56889e-07 272.371 
-0.93 -0.47 -0.930264 0.351209 0.00902531 0.00874177 -3.32415e-05 0.00889006 1.56809e-07 272.248 
-0.83 -0.49 -2.04709 -0.0165398 0.00904727 0.0087671 -4.85199e-08 0.00891289 1.57161e-07 272.335 
-0.91 -0.47 -1.23613 0.598933 0.00903935 0.00873058 -2.9487e-05 0.00889046 1.56888e-07 272.123 
-0.99 -0.45 -0.112771 0.893143 0.00905128 0.0087721 -2.75609e-05 0.00892129 1.57261e-07 272.419 
-0.81 -0.49 -2.18683 0.213677 0.00906001 0.00877356 1.19546e-05 0.00892364 1.57398e-07 272.253 
-0.89 -0.47 -1.61321 0.449841 0.00904325 0.00873846 -3.13468e-05 0.00889026 1.56949e-07 272.011 
-0.97 -0.45 -0.430794 0.579587 0.0090504 0.0087595 -3.31345e-05 0.00891771 1.57252e-07 272.325 
-0.79 -0.49 -2.47809 0.0787731 0.00907005 0.00878007 1.14433e-05 0.00893247 1.57512e-07 272.325 
-0.87 -0.47 -1.93216 0.240045 0.00904471 0.00874719 -2.8236e-05 0.00890364 1.57166e-07 272.044 
-0.95 -0.45 -0.782172 0.617056 0.00905085 0.00874713 -3.54818e-05 0.00890885 1.5705e-07 272.404 
-0.77 -0.49 -2.49528 -0.042345 0.00907093 0.0087909 2.35638e-05 0.00894085 1.57592e-07 272.442 
-0.85 -0.47 -1.96638 0.348611 0.00905675 0.00875078 -1.56154e-05 0.00891351 1.57159e-07 272.359 
-0.93 -0.45 -1.16982 0.580679 0.00906102 0.00874133 -4.07935e-05 0.00890713 1.57123e-07 272.224 
-0.83 -0.47 -2.39664 0.203224 0.00906446 0.00875872 -1.06204e-05 0.00892011 1.57299e-07 272.317 
-0.91 -0.45 -1.31715 0.784777 0.00905864 0.00873353 -3.65752e-05 0.00889666 1.57085e-07 271.97 
-0.99 -0.43 -0.196567 1.12497 0.00905538 0.00876688 -3.47282e-05 0.00892681 1.57584e-07 272.029 
-0.81 -0.47 -2.62998 0.442329 0.00907314 0.00876367 -3.508e-06 0.00892959 1.57403e-07 272.426 
-0.89 -0.45 -1.62404 0.848982 0.0090715 0.00873265 -3.83098e-05 0.00890297 1.57152e-07 272.047 
-0.97 -0.43 -0.477657 0.962935 0.00907218 0.00876914 -3.68107e-05 0.00893358 1.57557e-07 272.281 
-0.79 -0.47 -2.94999 0.355896 0.00908321 0.00877262 8.18271e-06 0.00894096 1.57644e-07 272.356 
-0.87 -0.45 -1.99426 0.510287 0.00907617 0.00874384 -2.55546e-05 0.00891299 1.57278e-07 272.136 
-0.95 -0.43 -0.784708 0.921213 0.00907959 0.00875013 -4.59086e-05 0.00892202 1.57446e-07 272.12 
-0.77 -0.47 -3.22384 0.0538887 0.00909417 0.00878021 1.14155e-05 0.00894685 1.57837e-07 272.203 
-0.85 -0.45 -2.32839 0.47661 0.00907879 0.00874009 -2.337e-05 0.00891841 1.57363e-07 272.154 
-0.93 -0.43 -0.985412 0.949217 0.00908194 0.0087402 -3.89513e-05 0.00891517 1.5726e-07 272.234 
-0.75 -0.47 -3.26544 0.350799 0.0091059 0.00879661 1.93209e-05 0.00895539 1.57803e-07 272.521 
-0.83 -0.45 -2.55081 0.624451 0.00908854 0.00875847 -2.13127e-05 0.00893088 1.57566e-07 272.183 
-0.91 -0.43 -1.47135 1.02072 0.00908888 0.008737 -4.28398e-05 0.00891612 1.5731e-07 272.175 
-0.99 -0.41 -0.150089 1.43242 0.00908033 0.00877004 -4.81413e-05 0.00893816 1.57738e-07 272.108 
-0.81 -0.45 -2.89875 0.800121 0.009093 0.00874721 -1.20196e-05 0.00892921 1.57512e-07 272.226 
-0.89 -0.43 -1.62512 1.13674 0.00908438 0.00872796 -4.12671e-05 0.00891223 1.57317e-07 272.044 
-0.97 -0.41 -0.350548 1.18186 0.0090884 0.00876824 -5.14182e-05 0.00893503 1.57589e-07 272.27 
-0.79 -0.45 -3.009 0.525181 0.00910193 0.00876497 5.91719e-07 0.00894218 1.57733e-07 272.239 
-0.87 -0.43 -1.91945 0.870324 0.00908785 0.00873069 -3.83758e-05 0.00891746 1.57347e-07 272.152 
-0.95 -0.41 -0.599627 1.27392 0.00909646 0.00875655 -4.68866e-05 0.00893751 1.57593e-07 272.34 
-0.77 -0.45 -3.41079 0.381289 0.00911006 0.00877651 5.58719e-06 0.00894965 1.57766e-07 272.41 
-0.85 -0.43 -2.32764 0.86357 0.00910598 0.008742 -3.146e-05 0.00893155 1.57636e-07 272.084 
-0.93 -0.41 -1.22559 1.38211 0.00909845 0.00873177 -4.61941e-05 0.00892698 1.57503e-07 272.173 
-0.75 -0.45 -3.68766 0.464579 0.00911328 0.00878796 9.08942e-06 0.00895615 1.57978e-07 272.242 
-0.83 -0.43 -2.69479 0.898674 0.00910969 0.0087511 -2.08035e-05 0.00893646 1.57607e-07 272.283 
-0.91 -0.41 -1.39971 1.30437 0.00910329 0.00873723 -4.20146e-05 0.00892906 1.57599e-07 272.071 
-0.99 -0.39 -0.141881 1.71043 0.0090856 0.00877634 -5.45355e-05 0.00894082 1.57859e-07 271.981 
-0.81 -0.43 -3.01397 0.97341 0.00911389 0.00873816 -1.84045e-05 0.00893708 1.57667e-07 272.198 
-0.89 -0.41 -1.70193 1.36961 0.00910333 0.00873103 -4.53607e-05 0.0089265 1.57429e-07 272.287 
-0.97 -0.39 -0.528736 1.42119 0.0090989 0.00877091 -5.63791e-05 0.0089408 1.57754e-07 272.161 
-0.79 -0.43 -3.3611 0.833375 0.00912059 0.008756 -9.12671e-06 0.00895038 1.57917e-07 272.172 
-0.87 -0.41 -2.1077 1.28188 0.00910855 0.00872806 -4.02322e-05 0.00893188 1.57499e-07 272.331 
-0.95 -0.39 -0.90315 1.61703 0.00909972 0.00874833 -5.35436e-05 0.00893011 1.57488e-07 272.295 
-0.77 -0.43 -3.63748 0.747909 0.00912764 0.00877241 -6.09722e-07 0.00895821 1.58045e-07 272.189 
-0.85 -0.41 -2.63565 1.17601 0.00910405 0.00873539 -3.88995e-05 0.00893006 1.57637e-07 272.037 
-0.93 -0.39 -0.85339 1.61938 0.00910606 0.00873273 -4.79659e-05 0.00892866 1.57534e-07 272.172 
-0.83 -0.41 -2.78368 1.23723 0.00911494 0.00873894 -3.13961e-05 0.00893087 1.57621e-07 272.088 
-0.91 -0.39 -1.28244 1.77128 0.009112 0.00873508 -4.87016e-05 0.00893539 1.57637e-07 272.198 
-0.99 -0.37 0.0262175 1.99525 0.0090919 0.00878704 -6.35729e-05 0.00894819 1.57988e-07 271.983 
-0.81 -0.41 -3.03982 1.31458 0.00911952 0.00873198 -2.04633e-05 0.00893366 1.57758e-07 271.938 
-0.89 -0.39 -1.63126 1.6221 0.00911929 0.00873605 -4.66723e-05 0.0089412 1.57703e-07 272.261 
-0.97 -0.37 -0.441583 1.96559 0.00909583 0.00876189 -6.30628e-05 0.00893861 1.57782e-07 272.046 
-0.79 -0.41 -3.38346 1.0843 0.00913304 0.00875071 -2.02714e-05 0.00895219 1.57975e-07 272.127 
-0.87 -0.39 -1.92125 1.67929 0.00912093 0.00871841 -4.54548e-05 0.00893091 1.57647e-07 272.045 
-0.95 -0.37 -0.853946 1.79605 0.00910358 0.00874374 -5.62951e-05 0.00893307 1.57702e-07 272.016 
-0.77 -0.41 -3.75269 1.14397 0.0091431 0.00877316 -1.4745e-05 0.00897015 1.58274e-07 272.158 
-0.85 -0.39 -2.27336 1.60866 0.00913027 0.00873681 -4.06328e-05 0.00894414 1.57913e-07 271.989 
-0.93 -0.37 -1.24709 1.86743 0.00910951 0.00873351 -5.79336e-05 0.00893396 1.57705e-07 272.037 
-0.75 -0.41 -4.02427 0.95162 0.00915536 0.00878065 -1.29496e-05 0.00898017 1.5839e-07 272.263 
-0.83 -0.39 -2.66457 1.52601 0.00912748 0.00872446 -3.77555e-05 0.00893257 1.57711e-07 271.985 
-0.91 -0.37 -1.45651 1.97826 0.0091207 0.00873053 -5.87809e-05 0.00893653 1.57619e-07 272.264 
-0.99 -0.35 -0.233804 2.2011 0.00910021 0.00878723 -7.59845e-05 0.00895477 1.58258e-07 271.719 
-0.81 -0.39 -2.99826 1.5278 0.00913837 0.00873315 -3.5052e-05 0.00894595 1.57817e-07 272.209 
-0.89 -0.37 -1.7323 1.97522 0.00912629 0.00873068 -5.04537e-05 0.00893817 1.57848e-07 271.919 
-0.97 -0.35 -0.423047 2.40025 0.00910536 0.00875168 -6.78788e-05 0.0089411 1.5786e-07 271.987 
-0.79 -0.39 -3.31223 1.50001 0.00914423 0.00874048 -2.66136e-05 0.00895355 1.58082e-07 271.983 
-0.87 -0.37 -2.12578 2.10249 0.00912916 0.00871898 -4.99866e-05 0.00893591 1.57714e-07 272.082 
-0.95 -0.35 -0.785285 2.11665 0.00911685 0.00874135 -6.58328e-05 0.00893832 1.57795e-07 272.015 
-0.77 -0.39 -3.75368 1.5005 0.00915236 0.00877371 -2.18829e-05 0.00897415 1.58363e-07 272.126 
-0.85 -0.37 -2.51742 2.00151 0.00913316 0.0087283 -5.00027e-05 0.0089397 1.57861e-07 271.944 
-0.93 -0.35 -1.16557 2.22521 0.00912389 0.00873325 -6.45058e-05 0.00893973 1.57836e-07 271.987 
-0.83 -0.37 -2.97602 1.77068 0.00914168 0.00872087 -4.0401e-05 0.00893726 1.57811e-07 271.956 
-0.91 -0.35 -1.51597 2.32947 0.0091222 0.00872983 -5.78154e-05 0.0089334 1.57649e-07 272.117 
-0.81 -0.37 -3.25799 1.82766 0.00914651 0.00873009 -3.53014e-05 0.00894983 1.57963e-07 272.076 
-0.89 -0.35 -1.87759 2.45035 0.00912384 0.00872359 -5.45628e-05 0.00893132 1.57714e-07 271.942 
-0.79 -0.37 -3.65741 1.91025 0.00914848 0.00873651 -3.23944e-05 0.00895955 1.58217e-07 271.934 
-0.87 -0.35 -2.26657 2.32228 0.00913447 0.00872042 -5.622e-05 0.00893821 1.57778e-07 272.041 
-0.77 -0.37 -3.89894 1.9375 0.00915452 0.00876912 -2.77779e-05 0.00896984 1.58173e-07 272.322 
-0.85 -0.35 -2.61638 2.44181 0.00914155 0.00872058 -5.11516e-05 0.00894039 1.57901e-07 271.895 
-0.83 -0.35 -2.9927 2.14322 0.00914342 0.0087168 -4.75864e-05 0.00893784 1.57946e-07 271.74 
-0.81 -0.35 -3.41956 2.23315 0.00914996 0.00872728 -4.69316e-05 0.00895141 1.58011e-07 272.041 
-0.79 -0.35 -3.75622 2.22684 0.00916619 0.00873367 -4.18552e-05 0.00895953 1.58239e-07 271.896 
-0.77 -0.35 -3.96491 2.20878 0.00917806 0.00875785 -3.45398e-05 0.0089776 1.58351e-07 272.252 
-0.75 -0.35 -4.25428 2.23823 0.00918672 0.0087707 -2.83371e-05 0.00898673 1.58619e-07 272.068 
-0.75 -0.49 -2.72406 0.175995 0.00907759 0.00879508 2.77305e-05 0.00893896 1.57606e-07 272.361 
-0.75 -0.43 -3.90149 0.675934 0.0091389 0.00878483 -4.30787e-06 0.0089718 1.58148e-07 272.425 
-0.75 -0.39 -4.36098 1.36681 0.00915148 0.00877435 -1.9249e-05 0.00897533 1.58379e-07 272.134 
-0.75 -0.37 -4.23105 1.86246 0.00915955 0.00877038 -1.62445e-05 0.00897306 1.58374e-07 272.074 
-0.77 -0.33 -3.92766 2.46672 0.00916446 0.00874783 -4.68436e-05 0.00896368 1.58405e-07 271.736 
-0.73 -0.49 -3.0052 0.163028 0.00908473 0.00881282 2.60302e-05 0.00895517 1.57911e-07 272.327 
-0.73 -0.47 -3.34507 0.304855 0.00911174 0.00880403 2.35367e-05 0.00896946 1.58164e-07 272.327 
-0.73 -0.45 -3.85738 0.446815 0.00912845 0.0088054 1.20201e-05 0.00897477 1.58254e-07 272.332 
-0.73 -0.43 -4.2783 0.869209 0.00914711 0.00880067 2.40683e-07 0.00898366 1.58396e-07 272.358 
-0.73 -0.41 -4.40578 1.17064 0.00916414 0.00879651 -7.37613e-06 0.00898929 1.58574e-07 272.223 
-0.73 -0.39 -4.50101 1.42804 0.0091551 0.00878809 -7.8101e-06 0.00897596 1.58443e-07 272.044 
-0.73 -0.37 -4.77402 1.71467 0.00916399 0.00877531 -2.38439e-05 0.00897463 1.58477e-07 271.944 
-0.73 -0.35 -4.54114 1.94865 0.00918863 0.00878003 -2.44555e-05 0.0089887 1.58676e-07 272.029 
-0.81 -0.29 -3.26069 3.38739 0.0091614 0.00872101 -6.45107e-05 0.00894815 1.58098e-07 271.793 
-0.89 -0.27 -1.92349 3.82765 0.00912795 0.00869844 -8.85812e-05 0.00893047 1.57757e-07 271.841 
-0.97 -0.25 -0.473681 3.69903 0.0090883 0.00872555 -0.000111639 0.00891902 1.57714e-07 271.567 
-0.83 -0.29 -2.8981 3.39603 0.00915399 0.00871829 -6.8793e-05 0.00894486 1.57845e-07 272.128 
-0.91 -0.27 -1.48696 3.90177 0.00912682 0.00870791 -9.09205e-05 0.00893205 1.57766e-07 271.875 
-0.99 -0.25 -0.169375 3.75673 0.00908382 0.00875932 -0.000119274 0.00893537 1.58003e-07 271.568 
-0.79 -0.29 -3.57617 3.25431 0.0091665 0.00872464 -6.18525e-05 0.00895148 1.58161e-07 271.784 
-0.87 -0.27 -2.33563 3.96788 0.00913442 0.00870454 -7.60306e-05 0.00893877 1.57875e-07 271.891 
-0.95 -0.25 -0.783267 3.8423 0.00910325 0.0087184 -0.000106311 0.00892589 1.57802e-07 271.624 
-0.77 -0.29 -3.99699 3.32807 0.00917818 0.0087365 -5.70343e-05 0.00896712 1.58359e-07 271.92 
-0.85 -0.27 -2.67792 3.7652 0.00914907 0.00871565 -7.36709e-05 0.00894592 1.57967e-07 271.949 
-0.93 -0.25 -1.137 4.08388 0.00910903 0.00870691 -0.000105708 0.00892195 1.57631e-07 271.799 
-0.75 -0.29 -4.51716 3.24958 0.00918751 0.00875709 -5.50008e-05 0.00898373 1.58611e-07 271.99 
-0.83 -0.27 -3.0999 3.6338 0.00915664 0.00872037 -7.23856e-05 0.00895084 1.57978e-07 272.08 
-0.91 -0.25 -1.50888 4.21723 0.00911655 0.00869761 -9.87779e-05 0.00892233 1.57655e-07 271.77 
-0.99 -0.23 -0.070395 3.98811 0.00906629 0.0087504 -0.000128922 0.00892196 1.57739e-07 271.614 
-0.81 -0.27 -3.49089 3.78852 0.00916036 0.00871665 -7.70011e-05 0.008947 1.58059e-07 271.825 
-0.89 -0.25 -1.84829 4.19917 0.009128 0.0086969 -8.80187e-05 0.00893254 1.57735e-07 271.943 
-0.97 -0.23 -0.360107 4.07368 0.00908235 0.00872961 -0.000121491 0.0089186 1.57698e-07 271.582 
-0.79 -0.27 -3.98563 3.65125 0.00917317 0.00872063 -6.9203e-05 0.00894998 1.58269e-07 271.554 
-0.87 -0.25 -2.15444 4.3244 0.00913668 0.00870043 -9.00953e-05 0.00893968 1.57953e-07 271.785 
-0.95 -0.23 -0.843574 4.26585 0.00908885 0.00871002 -0.000121156 0.00891015 1.57482e-07 271.697 
-0.77 -0.27 -4.33318 3.71715 0.00917395 0.00873435 -6.33245e-05 0.00896579 1.58462e-07 271.703 
-0.85 -0.25 -2.58238 4.17802 0.00914875 0.00871132 -9.02842e-05 0.00894496 1.57951e-07 271.949 
-0.93 -0.23 -1.19524 4.42239 0.00910394 0.00870261 -0.000113669 0.00891702 1.57519e-07 271.842 
-0.83 -0.25 -3.1009 4.1191 0.00915785 0.00870895 -8.05114e-05 0.00894022 1.58027e-07 271.673 
-0.91 -0.23 -1.52686 4.44866 0.00911206 0.00868764 -0.000102752 0.00891929 1.57518e-07 271.914 
-0.99 -0.21 -0.0316202 4.16399 0.00908791 0.00874499 -0.000134796 0.00892769 1.57826e-07 271.638 
-0.81 -0.25 -3.39772 4.16995 0.00916316 0.00872557 -7.45247e-05 0.0089533 1.58174e-07 271.819 
-0.89 -0.23 -1.92422 4.76388 0.00912144 0.00869709 -0.000103931 0.00892461 1.57618e-07 271.902 
-0.97 -0.21 -0.265542 4.44146 0.00909589 0.00871473 -0.000131938 0.00891526 1.5763e-07 271.597 
-0.79 -0.25 -3.83943 4.20756 0.00915403 0.00871043 -7.74877e-05 0.00894327 1.58155e-07 271.545 
-0.87 -0.23 -2.41277 4.60674 0.00913654 0.00869497 -0.00010439 0.00892844 1.57777e-07 271.745 
-0.95 -0.21 -0.640501 4.66462 0.00910309 0.00871187 -0.000124506 0.00891984 1.57596e-07 271.795 
-0.77 -0.25 -4.22616 3.85054 0.00916657 0.0087344 -7.54078e-05 0.00895631 1.58297e-07 271.698 
-0.85 -0.23 -2.67325 4.63907 0.00914079 0.00870735 -9.37259e-05 0.00893465 1.57854e-07 271.801 
-0.93 -0.21 -1.19358 4.85083 0.0091027 0.00869159 -0.000122436 0.00891185 1.57579e-07 271.581 
-0.83 -0.23 -3.06813 4.58261 0.00913889 0.00869727 -8.65976e-05 0.00892865 1.57816e-07 271.685 
-0.91 -0.21 -1.52208 4.76137 0.00911155 0.00868233 -0.0001168 0.00891406 1.57577e-07 271.652 
-0.99 -0.19 -0.226162 4.42999 0.00907746 0.00873682 -0.000149405 0.0089189 1.57616e-07 271.733 
-0.81 -0.23 -3.55599 4.37822 0.00914768 0.00871862 -8.033e-05 0.00894549 1.58015e-07 271.854 
-0.89 -0.21 -1.87838 5.22017 0.0091276 0.0087015 -0.000112629 0.00893229 1.5775e-07 271.908 
-0.97 -0.19 -0.586059 4.74723 0.0090844 0.00870473 -0.00013622 0.00890383 1.57398e-07 271.649 
-0.79 -0.23 -3.67071 4.55621 0.0091625 0.0087189 -7.73179e-05 0.00895352 1.58177e-07 271.82 
-0.87 -0.21 -2.19359 5.01684 0.00912971 0.00867997 -0.000108662 0.00892068 1.57734e-07 271.583 
-0.95 -0.19 -0.850115 5.03493 0.00909597 0.00871098 -0.000133022 0.00891289 1.57568e-07 271.632 
-0.77 -0.23 -4.00225 4.27265 0.00916386 0.00873001 -8.63103e-05 0.00895341 1.58255e-07 271.682 
-0.85 -0.21 -2.76412 5.00392 0.00913531 0.00869918 -9.67865e-05 0.00893058 1.57805e-07 271.763 
-0.93 -0.19 -0.917805 5.23389 0.00910597 0.00868647 -0.000127082 0.0089126 1.57616e-07 271.54 
-0.75 -0.23 -4.52396 4.04115 0.0091743 0.00874196 -8.30808e-05 0.00896819 1.58467e-07 271.766 
-0.83 -0.21 -3.11684 4.86515 0.00914776 0.00869742 -9.2075e-05 0.00893481 1.57804e-07 271.892 
-0.91 -0.19 -1.34099 5.25852 0.00911001 0.00867904 -0.000125697 0.00890818 1.57456e-07 271.682 
-0.81 -0.21 -3.37229 4.73202 0.00915251 0.00871183 -8.76213e-05 0.0089489 1.58124e-07 271.771 
-0.89 -0.19 -1.87688 5.53176 0.00911667 0.00869166 -0.000116954 0.00892089 1.57596e-07 271.828 
-0.79 -0.21 -3.74912 4.8203 0.0091531 0.00872076 -8.91484e-05 0.00895078 1.58267e-07 271.581 
-0.87 -0.19 -2.3553 5.40611 0.00911754 0.00867938 -0.000109553 0.00891757 1.5765e-07 271.633 
-0.77 -0.21 -4.14629 4.73122 0.00916498 0.00873418 -9.12579e-05 0.00895982 1.58378e-07 271.666 
-0.85 -0.19 -2.63643 5.43241 0.00912165 0.00868687 -0.000108457 0.0089195 1.57622e-07 271.74 
-0.75 -0.21 -4.57981 4.5215 0.00916747 0.00874046 -9.27976e-05 0.00896594 1.58412e-07 271.793 
-0.83 -0.19 -2.95264 5.16638 0.00912388 0.0086984 -0.000105245 0.00892851 1.57771e-07 271.758 
-0.81 -0.19 -3.28595 5.16909 0.00914132 0.0086995 -9.852e-05 0.00893519 1.57958e-07 271.639 
-0.79 -0.19 -3.79958 5.14257 0.00915899 0.00873373 -9.7289e-05 0.00896354 1.58342e-07 271.841 
-0.77 -0.19 -4.09932 5.18555 0.0091681 0.00873004 -0.00010209 0.00896294 1.58411e-07 271.704 
-0.99 -0.33 -0.0757523 2.46115 0.00909905 0.00878055 -8.32801e-05 0.00894915 1.58029e-07 271.941 
-0.97 -0.33 -0.421546 2.62003 0.00911452 0.00875124 -8.12245e-05 0.00894368 1.57905e-07 271.989 
-0.91 -0.33 -1.55277 2.74788 0.00913999 0.00872187 -6.59782e-05 0.00893725 1.57711e-07 272.128 
-0.99 -0.31 -0.214851 2.81685 0.0090914 0.00877114 -9.66383e-05 0.00894089 1.57954e-07 271.819 
-0.97 -0.31 -0.424119 2.83797 0.00909734 0.00874889 -8.86758e-05 0.00893388 1.57947e-07 271.618 
-0.87 -0.33 -2.2413 2.81565 0.00915066 0.00872408 -5.89298e-05 0.0089473 1.579e-07 272.107 
-0.95 -0.31 -0.797681 3.04622 0.00910681 0.00872552 -8.32952e-05 0.00892834 1.57636e-07 271.985 
-0.85 -0.33 -2.51018 2.69946 0.00914571 0.00871315 -5.50335e-05 0.00893983 1.5773e-07 272.172 
-0.93 -0.31 -1.15922 2.9756 0.0091228 0.00872843 -8.31799e-05 0.0089389 1.57766e-07 272.083 
-0.91 -0.31 -1.45784 3.00312 0.0091338 0.00871533 -6.94033e-05 0.00894152 1.57721e-07 272.24 
-0.99 -0.29 -0.132955 3.10238 0.009086 0.00876939 -0.000102499 0.00894104 1.57998e-07 271.748 
-0.81 -0.33 -3.45987 2.61917 0.00915653 0.00872796 -5.06883e-05 0.0089527 1.58159e-07 271.826 
-0.89 -0.31 -1.77289 3.15174 0.00913838 0.00871398 -6.52438e-05 0.00893921 1.57807e-07 272.022 
-0.97 -0.29 -0.41505 3.14497 0.00909657 0.00874059 -9.72594e-05 0.00892999 1.57729e-07 271.875 
-0.87 -0.31 -2.25711 3.11739 0.00914344 0.00871969 -6.22723e-05 0.00893926 1.57896e-07 271.87 
-0.95 -0.29 -0.739482 3.37415 0.00910544 0.00872117 -9.73708e-05 0.00892684 1.57596e-07 272.009 
-0.85 -0.31 -2.56732 2.94278 0.00915069 0.0087112 -5.9566e-05 0.00894329 1.57957e-07 271.887 
-0.93 -0.29 -1.06291 3.2113 0.00911095 0.00872048 -8.74462e-05 0.00892544 1.57648e-07 271.877 
-0.83 -0.31 -2.85618 3.07809 0.00915687 0.00871921 -5.65336e-05 0.00894941 1.57969e-07 272.053 
-0.91 -0.29 -1.32387 3.45855 0.00911154 0.00870559 -8.15102e-05 0.00891844 1.57518e-07 271.887 
-0.99 -0.27 -0.112093 3.43035 0.00909733 0.00876159 -0.0001103 0.00894318 1.58156e-07 271.541 
-0.81 -0.31 -3.16229 3.0354 0.00916137 0.00872163 -5.9028e-05 0.00895759 1.58073e-07 272.122 
-0.89 -0.29 -1.70892 3.49726 0.00912509 0.00871034 -7.64561e-05 0.00892917 1.57668e-07 271.955 
-0.97 -0.27 -0.501262 3.39649 0.00910399 0.00873846 -0.0001049 0.00893515 1.57833e-07 271.852 
-0.79 -0.31 -3.67103 2.75329 0.00916772 0.00873053 -5.60215e-05 0.00895663 1.58237e-07 271.811 
-0.87 -0.29 -2.06548 3.56396 0.0091391 0.00871455 -6.5609e-05 0.00893971 1.57883e-07 271.906 
-0.95 -0.27 -0.636868 3.63384 0.00910517 0.00871685 -9.93509e-05 0.00892388 1.57603e-07 271.907 
-0.77 -0.31 -4.19057 2.89312 0.00916924 0.00874086 -5.09176e-05 0.00895569 1.58229e-07 271.796 
-0.85 -0.29 -2.60351 3.30379 0.00914374 0.00870949 -6.4592e-05 0.00893568 1.57822e-07 271.889 
-0.93 -0.27 -1.01094 3.55908 0.00911269 0.00871123 -9.37961e-05 0.00892132 1.57439e-07 272.112 
-0.95 -0.33 -0.688614 2.58703 0.0091203 0.00872948 -7.40653e-05 0.00893741 1.57817e-07 271.95 
-0.93 -0.33 -1.10188 2.60969 0.00912972 0.00873413 -6.54222e-05 0.00894113 1.57809e-07 272.076 
-0.89 -0.33 -2.006 2.71377 0.00914969 0.00871936 -6.09114e-05 0.0089419 1.57784e-07 272.143 
-0.83 -0.33 -2.91116 2.66244 0.00914753 0.00871306 -5.41972e-05 0.00894435 1.57966e-07 271.904 
-0.75 -0.31 -4.53399 2.80757 0.00917221 0.00875405 -4.74899e-05 0.00897412 1.58432e-07 272.006 
-0.75 -0.27 -4.52048 3.70017 0.00918708 0.00875222 -6.62432e-05 0.00898086 1.58668e-07 271.806 
-0.75 -0.25 -4.36428 3.78633 0.00917477 0.00874813 -6.97711e-05 0.00896778 1.58471e-07 271.748 
-0.75 -0.19 -4.45591 4.95259 0.00916873 0.00873893 -9.31455e-05 0.00896632 1.58458e-07 271.725 
-0.79 -0.33 -3.63174 2.3951 0.00915588 0.00873147 -5.21196e-05 0.00895424 1.58207e-07 271.789 
-0.75 -0.33 -4.30754 2.54866 0.00917496 0.00876109 -3.79423e-05 0.0089753 1.58545e-07 271.848 
-0.81 -0.17 -3.53878 5.55638 0.00912638 0.00869405 -0.000113515 0.00892144 1.57778e-07 271.531 
-0.79 -0.17 -3.85259 5.57367 0.00914034 0.00873281 -0.000114151 0.00895374 1.5819e-07 271.803 
-0.75 -0.17 -4.46675 5.44257 0.00916148 0.00873815 -0.000105273 0.00896018 1.5827e-07 271.862 
-0.73 -0.31 -4.88524 2.88742 0.00919174 0.00877611 -4.81944e-05 0.00899445 1.58778e-07 272.028 
-0.73 -0.29 -4.79537 3.16486 0.00918487 0.00877134 -5.46877e-05 0.00899079 1.58794e-07 271.89 
-0.73 -0.27 -4.87977 3.30645 0.00919701 0.00877574 -6.42774e-05 0.00899655 1.58844e-07 271.978 
-0.73 -0.25 -4.61748 3.78821 0.00918008 0.00877043 -6.6284e-05 0.00898362 1.58758e-07 271.736 
-0.73 -0.23 -4.84994 4.21158 0.00918711 0.00877183 -7.67563e-05 0.00898818 1.58843e-07 271.727 
-0.73 -0.21 -4.85946 4.40708 0.009179 0.00876505 -9.37969e-05 0.00898461 1.58667e-07 271.922 
-0.73 -0.19 -4.89247 4.68184 0.00917094 0.00877445 -9.91851e-05 0.00898064 1.58645e-07 271.839 
-0.79 -0.05 -3.34173 7.61378 0.0090614 0.00871983 -0.000153007 0.00890454 1.57457e-07 271.569 
-0.87 -0.03 -2.2174 8.26132 0.00900536 0.00863053 -0.000176728 0.00883601 1.56378e-07 271.338 
-0.83 -0.05 -2.74272 8.01608 0.0090387 0.0086816 -0.000154364 0.00888243 1.57102e-07 271.506 
-0.91 -0.03 -1.56946 8.29481 0.00899454 0.00862607 -0.000188049 0.00883165 1.56244e-07 271.437 
-0.81 -0.05 -2.97258 7.63433 0.00905363 0.00869796 -0.000147685 0.00889602 1.57294e-07 271.59 
-0.89 -0.03 -1.85105 8.29248 0.00899935 0.00862994 -0.000179563 0.00883306 1.56355e-07 271.287 
-0.77 -0.05 -3.68901 7.30523 0.00906706 0.00872188 -0.000154235 0.00891188 1.57534e-07 271.66 
-0.85 -0.03 -2.50481 8.17565 0.00900985 0.00864702 -0.000175283 0.00885017 1.56606e-07 271.377 
-0.75 -0.05 -3.95464 7.09513 0.00907136 0.00874871 -0.000158777 0.00892143 1.57659e-07 271.735 
-0.83 -0.03 -2.69895 8.33196 0.00902658 0.00867051 -0.000163953 0.0088692 1.56919e-07 271.419 
-0.81 -0.03 -3.10846 7.89636 0.0090344 0.00869638 -0.00015877 0.00888127 1.57087e-07 271.498 
-0.79 -0.03 -3.22249 8.04002 0.00904604 0.00871924 -0.000159063 0.0088993 1.57438e-07 271.443 
-0.77 -0.03 -3.67929 7.56712 0.00905542 0.00872599 -0.000159317 0.00890303 1.57457e-07 271.522 
-0.95 -0.17 -0.725854 5.21358 0.00908066 0.00869552 -0.000142802 0.0088991 1.57385e-07 271.527 
-0.99 -0.15 -0.144081 4.96834 0.00903592 0.00870719 -0.0001723 0.00888994 1.57203e-07 271.561 
-0.89 -0.17 -2.01932 5.84409 0.00910385 0.00867244 -0.000124967 0.00890632 1.57327e-07 271.848 
-0.97 -0.15 -0.539723 5.4435 0.0090599 0.00870345 -0.000165092 0.00889363 1.57222e-07 271.642 
-0.95 -0.15 -0.888158 5.64533 0.00906929 0.00868242 -0.000151563 0.00888582 1.57148e-07 271.531 
-0.93 -0.15 -1.26492 6.02843 0.0090737 0.00867081 -0.000140382 0.00888606 1.57228e-07 271.4 
-0.83 -0.17 -3.07939 5.59821 0.00912567 0.00870422 -0.000108915 0.00893214 1.57839e-07 271.751 
-0.91 -0.15 -1.51463 6.12486 0.00908666 0.00868093 -0.00013814 0.00890318 1.57403e-07 271.62 
-0.99 -0.13 -0.252171 5.34793 0.0090392 0.00870454 -0.000188532 0.00888666 1.57105e-07 271.631 
-0.89 -0.15 -1.72688 6.15586 0.00908776 0.00865852 -0.000128777 0.00889026 1.57179e-07 271.612 
-0.97 -0.13 -0.5454 5.83592 0.00904607 0.0086841 -0.00017262 0.00888144 1.57125e-07 271.436 
-0.87 -0.15 -2.39296 6.1861 0.00909683 0.00868092 -0.00012623 0.00890843 1.57389e-07 271.805 
-0.95 -0.13 -1.01086 6.04882 0.00905927 0.00867142 -0.000162508 0.0088798 1.57137e-07 271.366 
-0.77 -0.17 -4.15279 5.28816 0.00915159 0.00872572 -0.000104075 0.00895641 1.58242e-07 271.795 
-0.85 -0.15 -2.70241 6.30588 0.00911219 0.00867634 -0.000118719 0.00891253 1.57637e-07 271.502 
-0.93 -0.13 -1.19457 6.18193 0.00907678 0.00867012 -0.000155985 0.00889214 1.57216e-07 271.606 
-0.83 -0.15 -3.02682 5.93969 0.00912436 0.00869691 -0.000117867 0.00892534 1.57816e-07 271.584 
-0.91 -0.13 -1.59657 6.43805 0.00907945 0.0086627 -0.000145799 0.00889057 1.57249e-07 271.5 
-0.99 -0.11 -0.10393 5.70016 0.00904348 0.00869455 -0.000186446 0.00888402 1.56999e-07 271.734 
-0.81 -0.15 -3.41052 5.98225 0.00913087 0.00870891 -0.000120038 0.0089324 1.5794e-07 271.585 
-0.89 -0.13 -1.97971 6.64555 0.00908669 0.00866236 -0.000133478 0.00889121 1.57258e-07 271.506 
-0.97 -0.11 -0.495586 6.2119 0.00903677 0.00867272 -0.000179573 0.00887381 1.56976e-07 271.461 
-0.79 -0.15 -3.80131 5.81461 0.00913077 0.00872196 -0.000120808 0.00894563 1.58185e-07 271.565 
-0.87 -0.13 -2.39963 6.6875 0.00909389 0.00866927 -0.000135309 0.00889857 1.57385e-07 271.511 
-0.95 -0.11 -0.774368 6.33524 0.00904408 0.00866783 -0.000174306 0.00887336 1.57108e-07 271.219 
-0.77 -0.15 -4.13285 5.65865 0.00913264 0.00872327 -0.000114998 0.00894524 1.58209e-07 271.513 
-0.85 -0.13 -2.69464 6.41911 0.00910037 0.00867582 -0.000128078 0.00890407 1.57537e-07 271.417 
-0.93 -0.11 -1.28351 6.67653 0.00905261 0.00865706 -0.000165501 0.00887214 1.57052e-07 271.278 
-0.75 -0.15 -4.37838 5.57086 0.00914114 0.00873974 -0.00011202 0.00895473 1.5833e-07 271.594 
-0.83 -0.13 -2.96876 6.39452 0.00910899 0.00869253 -0.000129764 0.00891556 1.57502e-07 271.827 
-0.91 -0.11 -1.68404 6.82952 0.00906044 0.00864905 -0.000151574 0.00887535 1.57065e-07 271.354 
-0.99 -0.09 -0.102963 5.87565 0.00900275 0.00868189 -0.000199629 0.00885511 1.56683e-07 271.395 
-0.81 -0.13 -3.46688 6.38023 0.00911243 0.00870716 -0.000122671 0.00892739 1.57891e-07 271.517 
-0.89 -0.11 -2.02401 7.05792 0.00907388 0.00865945 -0.000146105 0.00888594 1.5728e-07 271.306 
-0.97 -0.09 -0.323565 6.70465 0.00902694 0.00866592 -0.000187746 0.00886598 1.56844e-07 271.45 
-0.79 -0.13 -3.71191 6.20741 0.00912101 0.00871806 -0.000121188 0.00893531 1.57912e-07 271.722 
-0.87 -0.11 -2.25325 6.9571 0.00908269 0.00866386 -0.000140296 0.00889281 1.5734e-07 271.413 
-0.95 -0.09 -0.793767 6.76328 0.00903812 0.00866021 -0.000179683 0.00887262 1.56888e-07 271.577 
-0.77 -0.13 -4.01405 5.99681 0.00912419 0.00871892 -0.000119235 0.00893454 1.5805e-07 271.461 
-0.85 -0.11 -2.64648 6.83153 0.00908576 0.0086731 -0.000134679 0.00889542 1.57447e-07 271.307 
-0.93 -0.09 -1.15113 6.96339 0.00904117 0.00864763 -0.000171032 0.00886843 1.57049e-07 271.169 
-0.83 -0.11 -3.10146 6.83096 0.0090862 0.0086869 -0.000131021 0.00890606 1.57559e-07 271.439 
-0.91 -0.09 -1.41491 7.1965 0.00904486 0.00864018 -0.000161645 0.0088618 1.5693e-07 271.173 
-0.99 -0.07 -0.210974 6.15659 0.00900553 0.00867637 -0.000202215 0.00885707 1.56673e-07 271.473 
-0.81 -0.11 -3.37635 6.59121 0.00909664 0.00870789 -0.000132585 0.00891986 1.57555e-07 271.867 
-0.89 -0.09 -1.84357 7.38616 0.00905646 0.00865348 -0.000159699 0.00887514 1.5711e-07 271.269 
-0.97 -0.07 -0.522466 6.96528 0.00899743 0.00865383 -0.000201594 0.00884569 1.56489e-07 271.443 
-0.79 -0.11 -3.64665 6.54284 0.0091046 0.00871326 -0.000131418 0.00892726 1.57881e-07 271.53 
-0.87 -0.09 -2.07853 7.2289 0.00906905 0.00865664 -0.000149883 0.0088851 1.5728e-07 271.28 
-0.95 -0.07 -0.752785 7.14275 0.00899885 0.00865158 -0.000185935 0.00884908 1.56541e-07 271.456 
-0.77 -0.11 -4.01848 6.23387 0.00912235 0.0087165 -0.000132853 0.0089339 1.57966e-07 271.587 
-0.85 -0.09 -2.41125 7.24204 0.00907775 0.0086674 -0.000142851 0.00888989 1.57251e-07 271.476 
-0.93 -0.07 -1.18669 7.38571 0.00901212 0.00863524 -0.000180648 0.00884921 1.5666e-07 271.254 
-0.75 -0.11 -4.45795 6.13584 0.00913585 0.00875072 -0.000131991 0.0089565 1.58337e-07 271.635 
-0.83 -0.09 -2.73037 7.19048 0.00908807 0.00868421 -0.000139087 0.00890442 1.5748e-07 271.525 
-0.91 -0.07 -1.59079 7.55728 0.00902816 0.00863854 -0.000174715 0.00885733 1.56714e-07 271.409 
-0.99 -0.05 -0.12069 6.58389 0.00897974 0.00866664 -0.000214362 0.00883888 1.56391e-07 271.403 
-0.81 -0.09 -3.23362 6.98988 0.00909635 0.00871181 -0.000139504 0.00891891 1.57722e-07 271.55 
-0.89 -0.07 -1.88694 7.62293 0.00903828 0.00864695 -0.000167685 0.00886767 1.56942e-07 271.331 
-0.97 -0.05 -0.549612 7.12338 0.00899936 0.00864624 -0.000203992 0.00884618 1.56528e-07 271.39 
-0.79 -0.09 -3.67589 6.86977 0.00909637 0.00871346 -0.000138202 0.00892008 1.57739e-07 271.557 
-0.87 -0.07 -2.23833 7.65528 0.00904297 0.00864348 -0.000159333 0.00886199 1.56743e-07 271.502 
-0.95 -0.05 -0.79456 7.54705 0.00900799 0.00864335 -0.000194674 0.00884629 1.56526e-07 271.398 
-0.77 -0.09 -4.02776 6.6787 0.0090948 0.00871772 -0.000137514 0.00892147 1.57808e-07 271.479 
-0.85 -0.07 -2.49015 7.45882 0.00905209 0.00865852 -0.000150899 0.00887661 1.56975e-07 271.549 
-0.93 -0.05 -1.17653 7.83061 0.00900398 0.00862889 -0.000182382 0.00883979 1.56468e-07 271.299 
-0.75 -0.09 -4.31363 6.5492 0.00909511 0.0087473 -0.000143567 0.00893476 1.57983e-07 271.584 
-0.83 -0.07 -2.97079 7.737 0.00906072 0.00868787 -0.000145663 0.00888947 1.57102e-07 271.722 
-0.91 -0.05 -1.53175 7.95451 0.00900564 0.00863193 -0.000179202 0.00884091 1.5645e-07 271.364 
-0.99 -0.03 -0.213894 6.95342 0.00895834 0.00865475 -0.000228579 0.0088236 1.56133e-07 271.382 
-0.81 -0.07 -3.24965 7.4156 0.00906037 0.00870286 -0.00014611 0.00889978 1.5732e-07 271.659 
-0.89 -0.05 -1.82974 7.93431 0.00900775 0.00863579 -0.000175878 0.00884562 1.56584e-07 271.275 
-0.97 -0.03 -0.491582 7.48899 0.00896552 0.00863139 -0.000211219 0.00882067 1.56246e-07 271.096 