ITEM: TIMESTEP
1051500
ITEM: NUMBER OF CELLS
5000
ITEM: BOX BOUNDS ss ss pp
-1 1
-0.5 0.5
-0.5 0.5
ITEM: CELLS xc yc f_U[*] f_V[*] f_Tau[1] f_Tau[2] f_Tau[3] f_Press[*] f_Mrho[*] f_Ttra[*] 
-0.99 -0.49 -0.201474 0.284734 0.0089974 0.00875279 -2.73031e-05 0.0088885 1.56807e-07 272.204 
-0.97 -0.49 -0.529867 0.048144 0.00899353 0.00874953 -3.09535e-05 0.00888504 1.56626e-07 272.412 
-0.95 -0.49 -0.652465 0.0448728 0.00899284 0.00875038 -3.16128e-05 0.00888158 1.56649e-07 272.266 
-0.93 -0.49 -0.873446 0.142684 0.00900066 0.00874854 -2.3339e-05 0.00888364 1.56737e-07 272.176 
-0.91 -0.49 -1.1487 0.0892137 0.00900359 0.00872742 -2.16528e-05 0.0088695 1.56474e-07 272.2 
-0.99 -0.47 -0.163001 0.522864 0.00901692 0.00877254 -1.68057e-05 0.00890536 1.57057e-07 272.285 
-0.89 -0.49 -1.51928 0.243975 0.00901672 0.00874157 -2.33497e-05 0.00888287 1.56763e-07 272.107 
-0.97 -0.47 -0.415253 0.344655 0.00901856 0.00874788 -3.35802e-05 0.00889769 1.56828e-07 272.448 
-0.87 -0.49 -1.70794 0.0259831 0.00903548 0.00875907 -1.62686e-05 0.00889987 1.5706e-07 272.112 
-0.95 -0.47 -0.681777 0.320606 0.00902484 0.00875258 -3.1695e-05 0.00889838 1.56895e-07 272.353 
-0.85 -0.49 -1.94448 0.123236 0.00903839 0.00875336 -9.38933e-06 0.00889838 1.56892e-07 272.358 
-0.93 -0.47 -0.908603 0.339015 0.00902651 0.00874267 -3.33815e-05 0.00889179 1.56832e-07 272.26 
-0.83 -0.49 -2.05465 -0.00578796 0.00904662 0.00876609 -7.77487e-08 0.00891124 1.5715e-07 272.304 
-0.91 -0.47 -1.22634 0.560615 0.00903952 0.00873213 -2.99517e-05 0.0088915 1.56895e-07 272.143 
-0.99 -0.45 -0.119239 0.906304 0.00905225 0.00877458 -2.79696e-05 0.00892349 1.57304e-07 272.412 
-0.81 -0.49 -2.22277 0.213589 0.00905942 0.00877135 1.14246e-05 0.00892176 1.57367e-07 272.25 
-0.89 -0.47 -1.60311 0.458933 0.00904292 0.00873943 -3.14039e-05 0.00889063 1.56963e-07 271.998 
-0.97 -0.45 -0.425165 0.574158 0.00905119 0.00875995 -3.17683e-05 0.00891933 1.57285e-07 272.317 
-0.79 -0.49 -2.51984 0.0950663 0.00907083 0.00877922 1.13024e-05 0.00893302 1.57516e-07 272.335 
-0.87 -0.47 -1.89744 0.255695 0.00904547 0.00874713 -2.8102e-05 0.00890363 1.57158e-07 272.057 
-0.95 -0.45 -0.750052 0.606449 0.0090511 0.0087486 -3.58914e-05 0.00890961 1.57069e-07 272.395 
-0.77 -0.49 -2.53232 -0.064334 0.0090723 0.00878934 2.24927e-05 0.00894095 1.57604e-07 272.425 
-0.85 -0.47 -1.96976 0.357873 0.00905581 0.00874896 -1.54695e-05 0.00891258 1.57148e-07 272.349 
-0.93 -0.45 -1.13715 0.566522 0.0090602 0.00874153 -4.0584e-05 0.00890696 1.57122e-07 272.221 
-0.83 -0.47 -2.39117 0.212719 0.00906383 0.00875832 -1.04079e-05 0.00891855 1.57281e-07 272.3 
-0.91 -0.45 -1.30936 0.75191 0.00905708 0.00873456 -3.63675e-05 0.00889652 1.5709e-07 271.958 
-0.99 -0.43 -0.198298 1.12604 0.0090567 0.00876871 -3.45718e-05 0.00892776 1.57605e-07 272.021 
-0.81 -0.47 -2.6047 0.461858 0.00907287 0.00876208 -4.33239e-06 0.00892887 1.57397e-07 272.415 
-0.89 -0.45 -1.60428 0.870386 0.0090703 0.00873394 -3.80287e-05 0.00890205 1.57143e-07 272.035 
-0.97 -0.43 -0.469244 0.935293 0.00907382 0.00876978 -3.59823e-05 0.00893383 1.57573e-07 272.261 
-0.79 -0.47 -2.93316 0.375786 0.00908282 0.00877157 8.10651e-06 0.00894052 1.57637e-07 272.354 
-0.87 -0.45 -1.97284 0.547218 0.00907439 0.00874252 -2.52819e-05 0.00891094 1.57235e-07 272.147 
-0.95 -0.43 -0.781556 0.918888 0.00908039 0.00875181 -4.37714e-05 0.00892278 1.57456e-07 272.127 
-0.77 -0.47 -3.22302 0.0447851 0.00909252 0.00877874 1.09077e-05 0.00894623 1.57843e-07 272.173 
-0.85 -0.45 -2.29214 0.480671 0.00907823 0.0087388 -2.33316e-05 0.00891827 1.57358e-07 272.159 
-0.93 -0.43 -1.00664 0.973833 0.00908062 0.00873987 -3.88503e-05 0.00891408 1.5724e-07 272.235 
-0.75 -0.47 -3.28503 0.360117 0.00910377 0.00879546 1.8662e-05 0.00895385 1.57794e-07 272.489 
-0.83 -0.45 -2.50789 0.602894 0.00908826 0.00875865 -2.1913e-05 0.00893027 1.57536e-07 272.216 
-0.91 -0.43 -1.51006 1.00531 0.00908744 0.00873834 -4.33479e-05 0.00891593 1.57295e-07 272.196 
-0.99 -0.41 -0.154855 1.45458 0.00907887 0.00877117 -4.69812e-05 0.00893801 1.57718e-07 272.138 
-0.81 -0.45 -2.86949 0.797424 0.00909126 0.00874562 -1.15053e-05 0.00892845 1.57523e-07 272.184 
-0.89 -0.43 -1.6644 1.14735 0.0090834 0.00872814 -4.09705e-05 0.00891185 1.57306e-07 272.053 
-0.97 -0.41 -0.378511 1.149 0.00908662 0.00876823 -5.05064e-05 0.00893404 1.57569e-07 272.275 
-0.79 -0.45 -2.95364 0.543702 0.00910075 0.00876395 5.81806e-07 0.0089415 1.57733e-07 272.219 
-0.87 -0.43 -1.93873 0.911523 0.00908794 0.00873022 -3.80443e-05 0.00891744 1.57347e-07 272.153 
-0.95 -0.41 -0.606136 1.2694 0.0090946 0.0087571 -4.47819e-05 0.00893612 1.57567e-07 272.342 
-0.77 -0.45 -3.33272 0.414384 0.00910944 0.00877559 5.22131e-06 0.0089478 1.57775e-07 272.338 
-0.85 -0.43 -2.3245 0.851401 0.0091056 0.00874161 -3.12144e-05 0.00893182 1.57621e-07 272.118 
-0.93 -0.41 -1.20518 1.3967 0.00909682 0.00873408 -4.50991e-05 0.0089279 1.57509e-07 272.191 
-0.75 -0.45 -3.64399 0.462384 0.00911362 0.00878599 8.83324e-06 0.00895484 1.57979e-07 272.2 
-0.83 -0.43 -2.67295 0.877888 0.00910805 0.008751 -2.06225e-05 0.00893594 1.57603e-07 272.274 
-0.91 -0.41 -1.39108 1.31164 0.00910213 0.0087383 -4.1587e-05 0.00892982 1.57581e-07 272.125 
-0.99 -0.39 -0.136926 1.72619 0.00908414 0.00877692 -5.36856e-05 0.00894067 1.57858e-07 271.978 
-0.81 -0.43 -2.9946 0.980131 0.00911221 0.00873712 -1.87258e-05 0.00893558 1.57646e-07 272.188 
-0.89 -0.41 -1.70985 1.38447 0.00910148 0.00872966 -4.53002e-05 0.0089252 1.57422e-07 272.259 
-0.97 -0.39 -0.511514 1.421 0.00909657 0.00877041 -5.57265e-05 0.00894008 1.57735e-07 272.173 
-0.79 -0.43 -3.34503 0.822413 0.00911877 0.00875505 -9.36813e-06 0.00894885 1.57892e-07 272.168 
-0.87 -0.41 -2.09257 1.30367 0.00910742 0.00872707 -4.03482e-05 0.00893099 1.57491e-07 272.317 
-0.95 -0.39 -0.891886 1.57626 0.0090991 0.00874998 -5.3231e-05 0.00893086 1.57506e-07 272.288 
-0.77 -0.43 -3.59872 0.761165 0.0091254 0.00877215 -1.97305e-07 0.00895738 1.58031e-07 272.188 
-0.85 -0.41 -2.59145 1.16145 0.00910407 0.00873528 -3.86204e-05 0.00892992 1.57617e-07 272.067 
-0.93 -0.39 -0.838519 1.63451 0.00910676 0.008735 -4.67023e-05 0.00893108 1.57563e-07 272.195 
-0.83 -0.41 -2.7857 1.25593 0.00911363 0.00873839 -3.09273e-05 0.00892998 1.57598e-07 272.1 
-0.91 -0.39 -1.2637 1.80633 0.00911095 0.00873592 -4.72244e-05 0.00893582 1.57642e-07 272.203 
-0.99 -0.37 0.02383 2.00245 0.00909123 0.00878609 -6.22706e-05 0.00894835 1.57982e-07 271.997 
-0.81 -0.41 -3.05846 1.29322 0.00911802 0.00873114 -1.92576e-05 0.00893282 1.57745e-07 271.935 
-0.89 -0.39 -1.64309 1.65636 0.00911785 0.00873553 -4.573e-05 0.00894112 1.57679e-07 272.301 
-0.97 -0.37 -0.435089 1.93145 0.00909565 0.00876208 -6.18662e-05 0.00893867 1.5779e-07 272.034 
-0.79 -0.41 -3.3862 1.07238 0.00913116 0.00875027 -1.97114e-05 0.00895093 1.57971e-07 272.095 
-0.87 -0.39 -1.95679 1.68146 0.00911867 0.00871774 -4.59463e-05 0.00893002 1.57658e-07 271.999 
-0.95 -0.37 -0.837642 1.77909 0.00910198 0.00874506 -5.60815e-05 0.00893276 1.57691e-07 272.024 
-0.77 -0.41 -3.72822 1.11128 0.00914144 0.00877249 -1.48351e-05 0.00896906 1.58268e-07 272.134 
-0.85 -0.39 -2.32036 1.60933 0.00912869 0.00873586 -4.15725e-05 0.00894269 1.57904e-07 271.961 
-0.93 -0.37 -1.24776 1.88055 0.00910633 0.00873525 -5.7888e-05 0.00893275 1.57685e-07 272.035 
-0.75 -0.41 -3.96868 0.964024 0.00915526 0.00878056 -1.4131e-05 0.00897951 1.58386e-07 272.249 
-0.83 -0.39 -2.67989 1.54063 0.00912728 0.0087234 -3.68782e-05 0.00893145 1.5769e-07 271.987 
-0.91 -0.37 -1.45628 2.01003 0.00911839 0.00873162 -5.84599e-05 0.00893678 1.57626e-07 272.26 
-0.99 -0.35 -0.233319 2.20089 0.00909823 0.0087854 -7.50274e-05 0.00895321 1.58207e-07 271.759 
-0.81 -0.39 -2.9822 1.53113 0.00913823 0.0087325 -3.40666e-05 0.00894546 1.57823e-07 272.184 
-0.89 -0.37 -1.73473 2.03411 0.00912556 0.00873104 -5.0611e-05 0.00893913 1.57853e-07 271.94 
-0.97 -0.35 -0.411994 2.37015 0.00910415 0.008753 -6.76361e-05 0.00894063 1.57839e-07 272.009 
-0.79 -0.39 -3.2957 1.4643 0.00914462 0.00874129 -2.71984e-05 0.00895396 1.58099e-07 271.966 
-0.87 -0.37 -2.15709 2.13976 0.00912874 0.00871959 -5.03505e-05 0.00893681 1.57731e-07 272.08 
-0.95 -0.35 -0.788866 2.10716 0.00911522 0.00874267 -6.54586e-05 0.00893825 1.57783e-07 272.034 
-0.77 -0.39 -3.74415 1.44148 0.00915339 0.0087738 -2.30513e-05 0.00897476 1.58381e-07 272.113 
-0.85 -0.37 -2.51627 2.0034 0.00913102 0.00872734 -4.99449e-05 0.00893822 1.57846e-07 271.924 
-0.93 -0.35 -1.16224 2.25256 0.00912434 0.00873618 -6.51115e-05 0.00894087 1.57848e-07 272.002 
-0.83 -0.37 -2.95614 1.77485 0.00913927 0.00871869 -4.10098e-05 0.00893546 1.57775e-07 271.962 
-0.91 -0.35 -1.50894 2.34654 0.00912387 0.0087313 -5.84527e-05 0.00893447 1.57651e-07 272.146 
-0.81 -0.37 -3.22588 1.83223 0.00914624 0.00873019 -3.5319e-05 0.00894931 1.57944e-07 272.093 
-0.89 -0.35 -1.87625 2.50852 0.00912441 0.00872276 -5.53657e-05 0.00893185 1.57734e-07 271.923 
-0.79 -0.37 -3.61838 1.88451 0.00914875 0.00873764 -3.31859e-05 0.00895951 1.58213e-07 271.94 
-0.87 -0.35 -2.23775 2.33772 0.00913394 0.00872066 -5.58327e-05 0.00893774 1.578e-07 271.989 
-0.77 -0.37 -3.87959 1.92946 0.00915561 0.00876926 -2.86558e-05 0.00897062 1.58178e-07 272.336 
-0.85 -0.35 -2.59387 2.45131 0.00914144 0.00871976 -5.02432e-05 0.00894054 1.57913e-07 271.879 
-0.83 -0.35 -2.97341 2.17096 0.00914306 0.0087158 -4.75696e-05 0.00893798 1.57935e-07 271.763 
-0.81 -0.35 -3.38145 2.21951 0.00914932 0.0087275 -4.87467e-05 0.00895128 1.57997e-07 272.061 
-0.79 -0.35 -3.71369 2.21214 0.00916569 0.00873472 -4.34589e-05 0.00896048 1.5825e-07 271.905 
-0.77 -0.35 -3.95453 2.2096 0.00917633 0.00875747 -3.48364e-05 0.00897733 1.58325e-07 272.288 
-0.75 -0.35 -4.24663 2.21312 0.00918574 0.00877042 -2.83862e-05 0.00898665 1.58621e-07 272.062 
-0.75 -0.49 -2.73104 0.185367 0.00907897 0.00879488 2.83151e-05 0.00893983 1.5763e-07 272.346 
-0.75 -0.43 -3.86133 0.67951 0.00913619 0.00878241 -4.62364e-06 0.00897017 1.58137e-07 272.393 
-0.75 -0.39 -4.34019 1.3811 0.00915182 0.00877478 -2.02269e-05 0.0089752 1.58378e-07 272.133 
-0.75 -0.37 -4.21942 1.84028 0.00916026 0.00877041 -1.68464e-05 0.00897381 1.58387e-07 272.074 
-0.77 -0.33 -3.88407 2.45126 0.00916654 0.00874732 -4.79783e-05 0.00896511 1.5841e-07 271.771 
-0.73 -0.49 -3.00755 0.155635 0.00908554 0.00881454 2.63446e-05 0.00895625 1.57924e-07 272.338 
-0.73 -0.47 -3.35225 0.295232 0.0091103 0.00880422 2.45866e-05 0.00896877 1.58155e-07 272.321 
-0.73 -0.45 -3.84303 0.460923 0.00912855 0.00880594 1.19951e-05 0.00897414 1.58257e-07 272.308 
-0.73 -0.43 -4.20685 0.903038 0.00914568 0.00880202 -5.60121e-07 0.00898366 1.58407e-07 272.339 
-0.73 -0.41 -4.35482 1.19278 0.00916333 0.00879715 -8.35835e-06 0.00898919 1.58574e-07 272.22 
-0.73 -0.39 -4.49331 1.45518 0.00915424 0.00878785 -8.94031e-06 0.00897568 1.58449e-07 272.025 
-0.73 -0.37 -4.74005 1.72271 0.00916576 0.00877587 -2.36573e-05 0.0089754 1.58493e-07 271.941 
-0.73 -0.35 -4.52111 1.96231 0.00918806 0.00878105 -2.55639e-05 0.00898817 1.58685e-07 271.998 
-0.81 -0.29 -3.25987 3.38115 0.00916185 0.00872169 -6.4498e-05 0.00894851 1.58104e-07 271.794 
-0.89 -0.27 -1.90796 3.8033 0.00912805 0.00869971 -8.83352e-05 0.00893071 1.57758e-07 271.848 
-0.97 -0.25 -0.48677 3.69817 0.00908735 0.00872798 -0.000112623 0.00891974 1.57758e-07 271.513 
-0.83 -0.29 -2.88273 3.41782 0.00915513 0.00871823 -6.90445e-05 0.00894565 1.57852e-07 272.14 
-0.91 -0.27 -1.46498 3.9105 0.0091276 0.00870912 -8.98205e-05 0.00893269 1.57765e-07 271.895 
-0.99 -0.25 -0.156517 3.73519 0.00908053 0.00875869 -0.000120191 0.00893367 1.57997e-07 271.527 
-0.79 -0.29 -3.55525 3.2102 0.00916873 0.00872546 -6.17464e-05 0.008953 1.58191e-07 271.779 
-0.87 -0.27 -2.34318 3.96314 0.00913527 0.0087033 -7.76483e-05 0.00893794 1.57869e-07 271.875 
-0.95 -0.25 -0.808467 3.84711 0.00910218 0.00871969 -0.000106018 0.00892601 1.57802e-07 271.628 
-0.77 -0.29 -3.96557 3.27238 0.00918021 0.00873721 -5.68765e-05 0.0089674 1.58358e-07 271.929 
-0.85 -0.27 -2.68215 3.78451 0.00914936 0.00871407 -7.53953e-05 0.00894577 1.57966e-07 271.947 
-0.93 -0.25 -1.11411 4.10416 0.00910755 0.00870681 -0.000104087 0.00892183 1.57639e-07 271.782 
-0.75 -0.29 -4.47846 3.24192 0.00918848 0.00875689 -5.56443e-05 0.0089833 1.58589e-07 272.015 
-0.83 -0.27 -3.08891 3.66907 0.00915732 0.00872039 -7.25861e-05 0.00895188 1.57985e-07 272.099 
-0.91 -0.25 -1.47586 4.22054 0.00911535 0.00869895 -9.81346e-05 0.00892222 1.57642e-07 271.789 
-0.99 -0.23 -0.080797 3.97021 0.00906524 0.00875128 -0.000129558 0.00892145 1.57736e-07 271.603 
-0.81 -0.27 -3.46879 3.75689 0.00916157 0.00871658 -7.6469e-05 0.00894735 1.58046e-07 271.857 
-0.89 -0.25 -1.83429 4.19585 0.00912786 0.0086997 -8.89675e-05 0.0089339 1.57755e-07 271.95 
-0.97 -0.23 -0.382317 4.10243 0.00907968 0.00872907 -0.000122208 0.00891758 1.57672e-07 271.595 
-0.79 -0.27 -3.94904 3.60813 0.0091749 0.0087215 -6.93846e-05 0.00895106 1.58274e-07 271.578 
-0.87 -0.25 -2.17974 4.3319 0.00913635 0.00869804 -9.07132e-05 0.00893862 1.57937e-07 271.78 
-0.95 -0.23 -0.849845 4.25016 0.00908558 0.00871078 -0.000120284 0.00890931 1.5748e-07 271.675 
-0.77 -0.27 -4.27129 3.64436 0.00917538 0.0087354 -6.36885e-05 0.00896659 1.58484e-07 271.689 
-0.85 -0.25 -2.58664 4.16513 0.0091481 0.00871035 -9.02375e-05 0.0089455 1.57963e-07 271.943 
-0.93 -0.23 -1.22326 4.42512 0.009102 0.00870303 -0.000113371 0.00891588 1.57499e-07 271.843 
-0.83 -0.25 -3.07775 4.13672 0.00915637 0.00870816 -8.19333e-05 0.00894001 1.58027e-07 271.667 
-0.91 -0.23 -1.55245 4.4418 0.0091115 0.00868987 -0.000103515 0.00891951 1.5752e-07 271.916 
-0.99 -0.21 -0.0377723 4.16419 0.00908597 0.0087452 -0.000136002 0.00892671 1.57794e-07 271.663 
-0.81 -0.25 -3.36972 4.14255 0.00916331 0.00872537 -7.48777e-05 0.00895275 1.5817e-07 271.809 
-0.89 -0.23 -1.93592 4.77464 0.00912113 0.00869891 -0.000103663 0.00892493 1.57636e-07 271.882 
-0.97 -0.21 -0.271406 4.4608 0.00909424 0.00871475 -0.00013201 0.00891474 1.576e-07 271.633 
-0.79 -0.25 -3.81313 4.13125 0.00915525 0.00871103 -7.77274e-05 0.00894426 1.58175e-07 271.542 
-0.87 -0.23 -2.39234 4.60242 0.00913562 0.0086941 -0.000104369 0.00892715 1.57757e-07 271.74 
-0.95 -0.21 -0.64913 4.66243 0.00910205 0.00871252 -0.000125253 0.0089196 1.57613e-07 271.758 
-0.77 -0.25 -4.20923 3.83929 0.00916811 0.00873558 -7.59084e-05 0.008958 1.58313e-07 271.721 
-0.85 -0.23 -2.6663 4.63928 0.00913964 0.00870617 -9.38452e-05 0.00893356 1.57849e-07 271.778 
-0.93 -0.21 -1.17399 4.84543 0.00910296 0.00869334 -0.000123861 0.00891337 1.5759e-07 271.608 
-0.83 -0.23 -3.0588 4.59099 0.00913844 0.00869772 -8.67716e-05 0.00892872 1.57795e-07 271.722 
-0.91 -0.21 -1.51328 4.76718 0.00911225 0.00868393 -0.000117224 0.0089151 1.57577e-07 271.683 
-0.99 -0.19 -0.218546 4.41825 0.00907542 0.00873627 -0.000150212 0.00891804 1.57603e-07 271.729 
-0.81 -0.23 -3.54373 4.37025 0.00914686 0.00871687 -8.1661e-05 0.00894535 1.58008e-07 271.862 
-0.89 -0.21 -1.87469 5.19751 0.00912768 0.00870264 -0.000112287 0.00893164 1.57744e-07 271.9 
-0.97 -0.19 -0.552456 4.74096 0.00908375 0.00870465 -0.00013716 0.00890354 1.57387e-07 271.659 
-0.79 -0.23 -3.68162 4.49846 0.00916159 0.0087205 -7.80002e-05 0.00895443 1.58186e-07 271.831 
-0.87 -0.21 -2.18667 5.01423 0.00912941 0.0086802 -0.000108516 0.00892023 1.57737e-07 271.565 
-0.95 -0.19 -0.797202 5.03076 0.00909585 0.00871175 -0.000134511 0.00891367 1.57561e-07 271.668 
-0.77 -0.23 -4.00859 4.24826 0.00916305 0.00873049 -8.56593e-05 0.00895286 1.58251e-07 271.673 
-0.85 -0.21 -2.75502 5.00714 0.00913446 0.0086981 -9.72729e-05 0.00892964 1.57787e-07 271.766 
-0.93 -0.19 -0.88945 5.19958 0.00910512 0.00868866 -0.000128347 0.00891282 1.57601e-07 271.572 
-0.75 -0.23 -4.52042 4.06401 0.00917308 0.00874236 -8.22239e-05 0.00896842 1.58476e-07 271.759 
-0.83 -0.21 -3.10869 4.85167 0.00914648 0.00869765 -9.2779e-05 0.00893475 1.578e-07 271.897 
-0.91 -0.19 -1.32614 5.27104 0.00910791 0.00867918 -0.000126319 0.00890707 1.57445e-07 271.666 
-0.81 -0.21 -3.35399 4.74936 0.00915065 0.00870958 -8.78613e-05 0.00894752 1.58095e-07 271.778 
-0.89 -0.19 -1.87714 5.53115 0.00911374 0.00869183 -0.000116846 0.00891984 1.57588e-07 271.81 
-0.79 -0.21 -3.74502 4.78905 0.00915144 0.00872098 -8.84165e-05 0.00895165 1.58268e-07 271.607 
-0.87 -0.19 -2.35984 5.41922 0.00911519 0.00867997 -0.000108607 0.00891617 1.57645e-07 271.599 
-0.77 -0.21 -4.17092 4.69384 0.00916285 0.00873416 -9.05136e-05 0.00895962 1.58354e-07 271.701 
-0.85 -0.19 -2.65586 5.42413 0.00911928 0.0086865 -0.000107921 0.00891768 1.57606e-07 271.712 
-0.75 -0.21 -4.59343 4.54466 0.00916557 0.00874103 -9.3166e-05 0.00896505 1.58378e-07 271.825 
-0.83 -0.19 -2.97844 5.13882 0.00912007 0.00869693 -0.000105009 0.00892541 1.57747e-07 271.704 
-0.81 -0.19 -3.28832 5.18436 0.0091381 0.00869809 -9.86289e-05 0.00893301 1.57917e-07 271.644 
-0.79 -0.19 -3.80897 5.1591 0.00915744 0.00873276 -9.77107e-05 0.00896218 1.58308e-07 271.858 
-0.77 -0.19 -4.12374 5.17358 0.00916758 0.00873004 -0.000101306 0.00896272 1.58395e-07 271.725 
-0.99 -0.33 -0.0849179 2.46026 0.0090975 0.00877944 -8.25829e-05 0.00894785 1.58014e-07 271.928 
-0.97 -0.33 -0.430538 2.58956 0.00911314 0.00875212 -8.08657e-05 0.00894311 1.57901e-07 271.978 
-0.91 -0.33 -1.5299 2.76544 0.00914016 0.0087222 -6.64278e-05 0.0089386 1.57713e-07 272.164 
-0.99 -0.31 -0.209314 2.81731 0.00909202 0.00877093 -9.66655e-05 0.00894075 1.57944e-07 271.833 
-0.97 -0.31 -0.428848 2.82651 0.00909868 0.00875124 -8.95667e-05 0.00893541 1.57968e-07 271.629 
-0.87 -0.33 -2.21709 2.8196 0.00915092 0.00872459 -5.78642e-05 0.00894851 1.57954e-07 272.051 
-0.95 -0.31 -0.822475 3.04975 0.00910777 0.00872825 -8.41737e-05 0.0089292 1.57645e-07 271.997 
-0.85 -0.33 -2.50558 2.72166 0.009146 0.00871278 -5.47315e-05 0.00893993 1.57736e-07 272.165 
-0.93 -0.31 -1.1915 2.96211 0.00912245 0.00873002 -8.27973e-05 0.0089393 1.57746e-07 272.129 
-0.91 -0.31 -1.48395 3.01118 0.00913162 0.0087145 -6.9551e-05 0.00894064 1.57704e-07 272.242 
-0.99 -0.29 -0.117121 3.0913 0.00908727 0.00877066 -0.000103766 0.00894266 1.58005e-07 271.786 
-0.81 -0.33 -3.41575 2.60955 0.00915865 0.00872866 -5.19827e-05 0.00895424 1.58167e-07 271.858 
-0.89 -0.31 -1.78659 3.16026 0.00913734 0.00871379 -6.58108e-05 0.00893836 1.5782e-07 271.973 
-0.97 -0.29 -0.395355 3.13974 0.00909799 0.00874298 -9.80076e-05 0.00893126 1.57755e-07 271.869 
-0.87 -0.31 -2.2506 3.14117 0.00914394 0.00871897 -6.2825e-05 0.0089397 1.57909e-07 271.86 
-0.95 -0.29 -0.744654 3.38001 0.00910653 0.0087234 -9.67398e-05 0.00892739 1.57602e-07 272.015 
-0.85 -0.31 -2.55778 2.98441 0.00915308 0.00871162 -5.9767e-05 0.00894502 1.57975e-07 271.909 
-0.93 -0.29 -1.06331 3.23104 0.00911207 0.0087214 -8.67784e-05 0.00892676 1.57669e-07 271.88 
-0.83 -0.31 -2.89102 3.05852 0.00915904 0.00871972 -5.748e-05 0.00895112 1.57985e-07 272.076 
-0.91 -0.29 -1.35857 3.4644 0.00911312 0.00870654 -8.21126e-05 0.00892014 1.57545e-07 271.892 
-0.99 -0.27 -0.124443 3.41373 0.00909979 0.00876328 -0.000109729 0.0089451 1.58183e-07 271.554 
-0.81 -0.31 -3.21711 3.04705 0.00916317 0.00872287 -5.85756e-05 0.00895898 1.58089e-07 272.137 
-0.89 -0.29 -1.7286 3.49024 0.0091266 0.0087106 -7.74426e-05 0.00892993 1.57665e-07 271.984 
-0.97 -0.27 -0.498406 3.38659 0.00910441 0.0087402 -0.000104329 0.00893628 1.57859e-07 271.843 
-0.79 -0.31 -3.70703 2.74186 0.00916847 0.00873026 -5.62639e-05 0.00895649 1.58222e-07 271.833 
-0.87 -0.29 -2.04461 3.55265 0.00914005 0.00871259 -6.68366e-05 0.00893956 1.57891e-07 271.887 
-0.95 -0.27 -0.608919 3.65513 0.00910609 0.00871887 -9.9581e-05 0.00892459 1.57606e-07 271.923 
-0.77 -0.31 -4.16477 2.85982 0.00917078 0.00874157 -5.18195e-05 0.00895737 1.58238e-07 271.832 
-0.85 -0.29 -2.59829 3.35604 0.00914595 0.0087099 -6.57381e-05 0.00893745 1.57853e-07 271.889 
-0.93 -0.27 -1.0178 3.58138 0.00911333 0.00871157 -9.35546e-05 0.00892241 1.57439e-07 272.144 
-0.95 -0.33 -0.685248 2.58582 0.00912168 0.00873255 -7.43489e-05 0.00893945 1.57841e-07 271.97 
-0.93 -0.33 -1.10218 2.60556 0.00913097 0.00873668 -6.70655e-05 0.0089423 1.57818e-07 272.096 
-0.89 -0.33 -1.96221 2.75499 0.00914957 0.00871777 -6.0418e-05 0.00894131 1.57803e-07 272.092 
-0.83 -0.33 -2.89853 2.65389 0.00914923 0.00871382 -5.47479e-05 0.00894647 1.57983e-07 271.939 
-0.75 -0.31 -4.51536 2.8145 0.0091726 0.00875342 -4.68795e-05 0.00897337 1.58424e-07 271.998 
-0.75 -0.27 -4.46595 3.69919 0.00918878 0.00875172 -6.67954e-05 0.00898054 1.58675e-07 271.784 
-0.75 -0.25 -4.39353 3.76903 0.00917591 0.0087481 -6.94167e-05 0.00896869 1.58475e-07 271.768 
-0.75 -0.19 -4.48774 4.9667 0.00916872 0.00874017 -9.29051e-05 0.00896681 1.58466e-07 271.726 
-0.79 -0.33 -3.58951 2.42135 0.00915845 0.00873166 -5.17863e-05 0.00895553 1.58216e-07 271.813 
-0.75 -0.33 -4.24418 2.5461 0.00917695 0.00876122 -3.88256e-05 0.00897616 1.58544e-07 271.875 
-0.81 -0.17 -3.53116 5.54505 0.00912574 0.00869363 -0.00011319 0.00892196 1.57781e-07 271.542 
-0.79 -0.17 -3.84176 5.59632 0.00913887 0.00873068 -0.000114667 0.00895294 1.58177e-07 271.802 
-0.75 -0.17 -4.45957 5.44239 0.00916212 0.00873908 -0.0001048 0.00896062 1.58283e-07 271.853 
-0.73 -0.31 -4.86212 2.90662 0.00919181 0.00877722 -4.89646e-05 0.00899559 1.58792e-07 272.039 
-0.73 -0.29 -4.73701 3.16409 0.0091859 0.0087731 -5.49525e-05 0.00899199 1.5882e-07 271.882 
-0.73 -0.27 -4.85073 3.32012 0.00919855 0.00877788 -6.42204e-05 0.00899913 1.58886e-07 271.984 
-0.73 -0.25 -4.63639 3.81675 0.00918087 0.00877083 -6.65007e-05 0.00898505 1.58789e-07 271.725 
-0.73 -0.23 -4.86631 4.20786 0.00918675 0.00877184 -7.61285e-05 0.00898924 1.58865e-07 271.723 
-0.73 -0.21 -4.8817 4.42686 0.00917754 0.00876459 -9.366e-05 0.0089842 1.5866e-07 271.921 
-0.73 -0.19 -4.90429 4.70213 0.00916943 0.00877381 -9.94622e-05 0.00897933 1.58614e-07 271.852 
-0.79 -0.05 -3.36366 7.62978 0.00906062 0.00872123 -0.000153089 0.00890486 1.57444e-07 271.601 
-0.87 -0.03 -2.21966 8.25785 0.00900404 0.00863088 -0.000174925 0.0088364 1.56386e-07 271.337 
-0.83 -0.05 -2.75514 8.01458 0.00903712 0.00868148 -0.000153435 0.00888088 1.57086e-07 271.487 
-0.91 -0.03 -1.51728 8.28103 0.00899313 0.00862475 -0.000188538 0.00883129 1.56229e-07 271.451 
-0.81 -0.05 -2.98826 7.64882 0.00905369 0.0086991 -0.000147811 0.00889622 1.57309e-07 271.57 
-0.89 -0.03 -1.82724 8.28456 0.00899877 0.0086297 -0.000177661 0.0088331 1.56345e-07 271.307 
-0.77 -0.05 -3.67712 7.30346 0.00906491 0.00872311 -0.000154976 0.00891191 1.57522e-07 271.682 
-0.85 -0.03 -2.54006 8.18609 0.00900889 0.00864674 -0.000175633 0.00885033 1.5662e-07 271.358 
-0.75 -0.05 -3.93456 7.10457 0.0090693 0.00874958 -0.000157745 0.00892195 1.57669e-07 271.734 
-0.83 -0.03 -2.73238 8.32114 0.0090269 0.00867158 -0.000164675 0.00887009 1.56943e-07 271.404 
-0.81 -0.03 -3.12131 7.90633 0.00903514 0.00869675 -0.000159142 0.00888179 1.57089e-07 271.51 
-0.79 -0.03 -3.24662 8.04244 0.00904635 0.00872108 -0.000158951 0.00889983 1.57438e-07 271.458 
-0.77 -0.03 -3.68669 7.56889 0.0090561 0.00872741 -0.000158817 0.00890388 1.57445e-07 271.57 
-0.95 -0.17 -0.676708 5.21303 0.00907981 0.00869737 -0.000143856 0.00889942 1.57384e-07 271.539 
-0.99 -0.15 -0.139939 4.9356 0.00903614 0.00870764 -0.000173034 0.00889042 1.57202e-07 271.578 
-0.89 -0.17 -2.01985 5.86322 0.00910176 0.00867274 -0.000125559 0.00890577 1.57301e-07 271.876 
-0.97 -0.15 -0.488822 5.42982 0.00906046 0.0087028 -0.000166522 0.00889371 1.57227e-07 271.636 
-0.95 -0.15 -0.865316 5.62322 0.00907149 0.00868537 -0.000151466 0.00888909 1.57202e-07 271.537 
-0.93 -0.15 -1.23179 6.0523 0.00907527 0.00867016 -0.000140356 0.00888699 1.5726e-07 271.374 
-0.83 -0.17 -3.09218 5.56909 0.0091263 0.00870234 -0.00010793 0.00893155 1.57836e-07 271.739 
-0.91 -0.15 -1.51638 6.16052 0.00908749 0.00868018 -0.000137672 0.00890389 1.5741e-07 271.629 
-0.99 -0.13 -0.240589 5.31704 0.0090404 0.00870516 -0.000189641 0.00888864 1.57126e-07 271.655 
-0.89 -0.15 -1.71989 6.16289 0.00908745 0.00865982 -0.00012928 0.00889124 1.57187e-07 271.629 
-0.97 -0.13 -0.543415 5.79625 0.00904714 0.00868394 -0.000173996 0.00888262 1.57134e-07 271.457 
-0.87 -0.15 -2.40212 6.17403 0.0090964 0.00867951 -0.000126447 0.00890875 1.57405e-07 271.788 
-0.95 -0.13 -1.01405 6.05124 0.00905965 0.00867187 -0.000163048 0.0088807 1.57145e-07 271.38 
-0.77 -0.17 -4.16348 5.3122 0.0091514 0.00872573 -0.00010458 0.00895665 1.58249e-07 271.791 
-0.85 -0.15 -2.71931 6.30572 0.00911289 0.00867617 -0.000118753 0.00891223 1.57637e-07 271.493 
-0.93 -0.13 -1.21288 6.2136 0.00907844 0.00867028 -0.000155276 0.0088935 1.57245e-07 271.597 
-0.83 -0.15 -3.02074 5.92285 0.00912324 0.00869528 -0.000117085 0.0089244 1.57801e-07 271.581 
-0.91 -0.13 -1.58132 6.45277 0.00908162 0.00866315 -0.000145616 0.00889217 1.57266e-07 271.52 
-0.99 -0.11 -0.108901 5.66842 0.00904208 0.00869324 -0.000187682 0.00888375 1.56986e-07 271.747 
-0.81 -0.15 -3.40188 5.93732 0.00912941 0.00870755 -0.00011933 0.00893124 1.57929e-07 271.569 
-0.89 -0.13 -1.93855 6.65176 0.00908801 0.00866354 -0.000132596 0.00889185 1.57251e-07 271.538 
-0.97 -0.11 -0.53581 6.18834 0.0090357 0.00867278 -0.000180276 0.00887401 1.56962e-07 271.491 
-0.79 -0.15 -3.76566 5.82628 0.00912941 0.00872134 -0.000121015 0.00894462 1.58166e-07 271.568 
-0.87 -0.13 -2.37008 6.71839 0.00909379 0.00866864 -0.00013551 0.00889803 1.57386e-07 271.492 
-0.95 -0.11 -0.806756 6.33649 0.00904311 0.00866673 -0.000175019 0.00887323 1.57084e-07 271.256 
-0.77 -0.15 -4.1207 5.694 0.00913205 0.00872262 -0.000115824 0.00894457 1.58176e-07 271.549 
-0.85 -0.13 -2.6844 6.41036 0.00910079 0.00867427 -0.00012823 0.0089035 1.57519e-07 271.429 
-0.93 -0.11 -1.30157 6.69629 0.00905065 0.00865699 -0.00016488 0.00887186 1.57033e-07 271.303 
-0.75 -0.15 -4.34258 5.55472 0.00914186 0.00874093 -0.000113078 0.00895515 1.5831e-07 271.641 
-0.83 -0.13 -2.95481 6.34793 0.00911004 0.00869194 -0.000129226 0.00891591 1.57508e-07 271.827 
-0.91 -0.11 -1.65698 6.81807 0.00905831 0.00864947 -0.000151976 0.00887503 1.57058e-07 271.357 
-0.99 -0.09 -0.106191 5.87775 0.00900325 0.00868116 -0.00019953 0.00885597 1.56691e-07 271.408 
-0.81 -0.13 -3.46587 6.36306 0.00911352 0.00870615 -0.000121959 0.00892691 1.57884e-07 271.515 
-0.89 -0.11 -2.01553 7.06061 0.00907391 0.00866043 -0.000145711 0.00888589 1.57286e-07 271.294 
-0.97 -0.09 -0.345476 6.67529 0.00902646 0.00866468 -0.000188267 0.00886526 1.56807e-07 271.492 
-0.79 -0.13 -3.71101 6.22033 0.0091219 0.00871769 -0.000120972 0.00893546 1.57929e-07 271.698 
-0.87 -0.11 -2.23638 6.98094 0.00908421 0.00866398 -0.000140365 0.00889412 1.57346e-07 271.442 
-0.95 -0.09 -0.821278 6.76418 0.0090368 0.00865896 -0.000179812 0.00887153 1.56863e-07 271.586 
-0.77 -0.13 -3.98086 6.021 0.00912398 0.00871859 -0.000119797 0.00893456 1.58036e-07 271.486 
-0.85 -0.11 -2.62326 6.82997 0.00908647 0.00867123 -0.000134218 0.00889453 1.57444e-07 271.286 
-0.93 -0.09 -1.15615 6.94435 0.00904178 0.0086473 -0.000171623 0.00886834 1.57026e-07 271.207 
-0.83 -0.11 -3.13725 6.79404 0.00908737 0.00868624 -0.000130246 0.00890594 1.5755e-07 271.452 
-0.91 -0.09 -1.44281 7.20181 0.00904646 0.00864097 -0.000160978 0.00886238 1.56923e-07 271.202 
-0.99 -0.07 -0.225549 6.15567 0.00900481 0.00867577 -0.000203004 0.00885669 1.5666e-07 271.484 
-0.81 -0.11 -3.38122 6.57557 0.00909706 0.00870773 -0.000131659 0.0089201 1.57558e-07 271.868 
-0.89 -0.09 -1.86723 7.40438 0.00905645 0.00865383 -0.000160307 0.00887532 1.57113e-07 271.271 
-0.97 -0.07 -0.538541 6.96495 0.00899733 0.00865304 -0.0002024 0.00884561 1.56467e-07 271.478 
-0.79 -0.11 -3.64014 6.57045 0.00910489 0.00871285 -0.000131403 0.0089268 1.57868e-07 271.539 
-0.87 -0.09 -2.09192 7.19455 0.0090689 0.00865609 -0.000148339 0.00888488 1.57266e-07 271.298 
-0.95 -0.07 -0.772652 7.14885 0.00899908 0.00865117 -0.000186612 0.00884953 1.56519e-07 271.509 
-0.77 -0.11 -4.02414 6.24518 0.009123 0.00871769 -0.000132742 0.00893489 1.57989e-07 271.576 
-0.85 -0.09 -2.39636 7.25126 0.00907778 0.00866678 -0.000142579 0.00888979 1.57258e-07 271.462 
-0.93 -0.07 -1.22062 7.40672 0.00901141 0.00863435 -0.000180423 0.00884909 1.56657e-07 271.255 
-0.75 -0.11 -4.43124 6.13344 0.00913836 0.00875104 -0.000132456 0.00895784 1.58341e-07 271.668 
-0.83 -0.09 -2.71189 7.19465 0.00908705 0.00868295 -0.000138985 0.00890389 1.57465e-07 271.535 
-0.91 -0.07 -1.60144 7.54971 0.00902691 0.00863767 -0.000174874 0.00885668 1.56686e-07 271.438 
-0.99 -0.05 -0.137001 6.59551 0.00897982 0.00866685 -0.000214485 0.00883926 1.56389e-07 271.419 
-0.81 -0.09 -3.22913 6.96284 0.00909631 0.00871202 -0.000139605 0.00891881 1.57694e-07 271.595 
-0.89 -0.07 -1.89373 7.631 0.00903728 0.00864674 -0.000167001 0.00886866 1.56959e-07 271.332 
-0.97 -0.05 -0.567265 7.12019 0.00899921 0.00864592 -0.000203996 0.00884688 1.56538e-07 271.394 
-0.79 -0.09 -3.67065 6.91021 0.00909758 0.00871351 -0.000137741 0.00892038 1.57728e-07 271.584 
-0.87 -0.07 -2.2509 7.61833 0.00904167 0.00864272 -0.00015825 0.00886142 1.56745e-07 271.481 
-0.95 -0.05 -0.808749 7.55098 0.00900709 0.00864245 -0.000195026 0.00884636 1.56519e-07 271.412 
-0.77 -0.09 -4.03362 6.7008 0.00909603 0.00871986 -0.00013686 0.00892255 1.57812e-07 271.505 
-0.85 -0.07 -2.5203 7.455 0.00905208 0.00865906 -0.000150185 0.00887776 1.56998e-07 271.544 
-0.93 -0.05 -1.17413 7.84696 0.00900438 0.00862727 -0.000183177 0.0088403 1.5646e-07 271.328 
-0.75 -0.09 -4.32616 6.54251 0.0090942 0.00874699 -0.000143149 0.00893449 1.57968e-07 271.601 
-0.83 -0.07 -2.98717 7.73545 0.00906102 0.00868732 -0.000145266 0.00888966 1.57091e-07 271.747 
-0.91 -0.05 -1.55852 7.94961 0.00900584 0.00863108 -0.000178532 0.00884128 1.56468e-07 271.344 
-0.99 -0.03 -0.219575 6.98344 0.00895821 0.0086545 -0.000228234 0.00882337 1.56122e-07 271.395 
-0.81 -0.07 -3.2616 7.41207 0.00905897 0.00870322 -0.000145861 0.00889901 1.57303e-07 271.666 
-0.89 -0.05 -1.83658 7.94496 0.00900678 0.00863581 -0.000174823 0.00884582 1.56572e-07 271.303 
-0.97 -0.03 -0.475809 7.47795 0.0089651 0.00863168 -0.000211098 0.0088201 1.56227e-07 271.112 