ITEM: TIMESTEP
1096500
ITEM: NUMBER OF CELLS
5000
ITEM: BOX BOUNDS ss ss pp
-1 1
-0.5 0.5
-0.5 0.5
ITEM: CELLS xc yc f_U[*] f_V[*] f_Tau[1] f_Tau[2] f_Tau[3] f_Press[*] f_Mrho[*] f_Ttra[*] 
-0.99 -0.49 -0.241081 0.307094 0.00899637 0.0087549 -2.88054e-05 0.0088883 1.56766e-07 272.269 
-0.97 -0.49 -0.605214 0.0680041 0.00899187 0.00875291 -3.16894e-05 0.00888515 1.56611e-07 272.441 
-0.95 -0.49 -0.716817 0.0451612 0.00899406 0.0087543 -3.0472e-05 0.0088827 1.56605e-07 272.377 
-0.93 -0.49 -0.927925 0.129623 0.00900076 0.00875164 -2.23339e-05 0.00888531 1.56728e-07 272.242 
-0.91 -0.49 -1.18798 0.0882364 0.00900197 0.00872729 -2.20877e-05 0.00887029 1.56502e-07 272.175 
-0.99 -0.47 -0.123437 0.564986 0.0090213 0.00877405 -1.94004e-05 0.00890646 1.57053e-07 272.326 
-0.89 -0.49 -1.53199 0.202282 0.00901504 0.00874264 -2.15752e-05 0.00888262 1.56748e-07 272.126 
-0.97 -0.47 -0.379583 0.370585 0.00902119 0.00875004 -3.26867e-05 0.00890074 1.56874e-07 272.461 
-0.87 -0.49 -1.70154 0.051084 0.00903485 0.00875786 -1.77403e-05 0.00889959 1.5701e-07 272.19 
-0.95 -0.47 -0.675518 0.294075 0.0090241 0.00875528 -3.27591e-05 0.0089004 1.56911e-07 272.387 
-0.85 -0.49 -1.97365 0.133239 0.00904035 0.00875497 -1.0792e-05 0.0089011 1.5693e-07 272.376 
-0.93 -0.47 -0.872271 0.310436 0.009028 0.00874678 -3.20153e-05 0.00889434 1.56861e-07 272.289 
-0.83 -0.49 -2.10316 0.0103253 0.00904479 0.00876411 1.13755e-06 0.00890952 1.57156e-07 272.241 
-0.91 -0.47 -1.21195 0.536635 0.00903806 0.00873168 -2.89161e-05 0.00889211 1.56899e-07 272.154 
-0.99 -0.45 -0.127628 0.903292 0.0090509 0.00877438 -2.9286e-05 0.00892228 1.57307e-07 272.37 
-0.81 -0.49 -2.2584 0.196021 0.0090554 0.00877115 1.20793e-05 0.00892014 1.57352e-07 272.226 
-0.89 -0.47 -1.55003 0.44991 0.00904465 0.00874269 -3.22745e-05 0.00889394 1.56946e-07 272.129 
-0.97 -0.45 -0.405865 0.640674 0.00905352 0.00876097 -3.24029e-05 0.00892161 1.5731e-07 272.343 
-0.79 -0.49 -2.52343 0.09145 0.00906431 0.00877986 1.51083e-05 0.00893114 1.57461e-07 272.373 
-0.87 -0.47 -1.90239 0.301225 0.00904743 0.00874674 -2.97426e-05 0.00890479 1.57126e-07 272.149 
-0.95 -0.45 -0.745828 0.570514 0.00905475 0.00875409 -3.52749e-05 0.00891592 1.57148e-07 272.45 
-0.77 -0.49 -2.57558 -0.0335858 0.00906772 0.00878918 2.39795e-05 0.00893637 1.57513e-07 272.442 
-0.85 -0.47 -1.98789 0.385209 0.00905511 0.00874703 -1.48652e-05 0.0089106 1.57145e-07 272.293 
-0.93 -0.45 -1.17187 0.573676 0.0090617 0.00874383 -4.113e-05 0.0089094 1.57165e-07 272.222 
-0.83 -0.47 -2.3795 0.217796 0.00906429 0.00875494 -9.1546e-06 0.00891713 1.57285e-07 272.25 
-0.91 -0.45 -1.31862 0.743864 0.00906202 0.0087372 -3.6883e-05 0.00889898 1.57091e-07 272.032 
-0.99 -0.43 -0.199992 1.16476 0.00905793 0.00877372 -3.60879e-05 0.00893094 1.57654e-07 272.033 
-0.81 -0.47 -2.5987 0.423581 0.00907353 0.00876252 -1.11327e-06 0.00892982 1.57459e-07 272.336 
-0.89 -0.45 -1.61296 0.824375 0.00907238 0.00873607 -3.7134e-05 0.00890466 1.57111e-07 272.17 
-0.97 -0.43 -0.462456 0.949656 0.00907192 0.00876704 -3.96503e-05 0.00893328 1.57613e-07 272.176 
-0.79 -0.47 -2.91137 0.361427 0.00908405 0.00877225 9.69499e-06 0.00894086 1.57677e-07 272.296 
-0.87 -0.45 -2.01143 0.629494 0.00907382 0.00873982 -2.43423e-05 0.00890978 1.57201e-07 272.171 
-0.95 -0.43 -0.803498 0.914152 0.00908139 0.00875472 -4.32216e-05 0.00892753 1.57522e-07 272.158 
-0.77 -0.47 -3.15732 0.0903158 0.00909501 0.00878111 1.24276e-05 0.00894706 1.57822e-07 272.235 
-0.85 -0.45 -2.3458 0.516033 0.00907774 0.00873809 -2.46134e-05 0.00891722 1.57389e-07 272.073 
-0.93 -0.43 -0.999535 0.940045 0.00908331 0.00874359 -3.80324e-05 0.00891769 1.57312e-07 272.22 
-0.75 -0.47 -3.27751 0.405356 0.00910503 0.00879289 1.86639e-05 0.00895163 1.57764e-07 272.474 
-0.83 -0.45 -2.53823 0.570017 0.00908879 0.00875357 -1.96074e-05 0.00892855 1.57569e-07 272.108 
-0.91 -0.43 -1.48606 1.00023 0.00908705 0.00873955 -4.18562e-05 0.00891577 1.5729e-07 272.2 
-0.99 -0.41 -0.130856 1.48929 0.00907818 0.00877837 -4.59093e-05 0.00893869 1.57749e-07 272.105 
-0.81 -0.45 -2.89178 0.759259 0.00909312 0.00874546 -1.013e-05 0.00893035 1.57591e-07 272.125 
-0.89 -0.43 -1.73702 1.13247 0.00908388 0.00872956 -3.92011e-05 0.00891248 1.57306e-07 272.072 
-0.97 -0.41 -0.398015 1.22021 0.00908254 0.0087671 -4.89398e-05 0.00893302 1.57573e-07 272.237 
-0.79 -0.45 -2.98163 0.513703 0.00910131 0.0087662 1.95279e-06 0.00894263 1.57795e-07 272.146 
-0.87 -0.43 -2.03901 0.97671 0.00908862 0.00873258 -3.73933e-05 0.00891846 1.57353e-07 272.173 
-0.95 -0.41 -0.620221 1.23644 0.00908679 0.008758 -4.58763e-05 0.00893336 1.57535e-07 272.313 
-0.77 -0.45 -3.37909 0.440011 0.0091089 0.00877811 5.93651e-06 0.00894798 1.57843e-07 272.226 
-0.85 -0.43 -2.37013 0.838448 0.00910051 0.00873733 -3.11191e-05 0.00892807 1.57606e-07 272.03 
-0.93 -0.41 -1.18547 1.31694 0.00908915 0.00873673 -4.5353e-05 0.0089259 1.5748e-07 272.181 
-0.75 -0.45 -3.61993 0.522605 0.00911417 0.00878466 9.31019e-06 0.00895544 1.58066e-07 272.068 
-0.83 -0.43 -2.68261 0.833472 0.00910422 0.00874556 -2.0752e-05 0.00893253 1.57601e-07 272.173 
-0.91 -0.41 -1.37042 1.32898 0.00909692 0.0087392 -4.19681e-05 0.00892737 1.57561e-07 272.085 
-0.99 -0.39 -0.150857 1.7723 0.009078 0.00878018 -5.36569e-05 0.00894016 1.57839e-07 271.995 
-0.81 -0.43 -3.00647 0.959953 0.00911248 0.00873568 -1.74041e-05 0.00893482 1.57671e-07 272.123 
-0.89 -0.41 -1.70231 1.4425 0.00909797 0.00873042 -4.51003e-05 0.0089253 1.57435e-07 272.24 
-0.97 -0.39 -0.523192 1.49089 0.00909117 0.00876751 -5.2972e-05 0.00893581 1.57636e-07 272.213 
-0.79 -0.43 -3.364 0.791666 0.00912104 0.00875753 -8.42198e-06 0.00894835 1.57922e-07 272.101 
-0.87 -0.41 -2.09191 1.35231 0.00910452 0.00873073 -3.77302e-05 0.00892951 1.57474e-07 272.3 
-0.95 -0.39 -0.883837 1.55031 0.00909718 0.00875481 -5.24024e-05 0.00893242 1.57494e-07 272.356 
-0.77 -0.43 -3.61436 0.786242 0.00912806 0.0087761 1.27121e-06 0.00896093 1.58135e-07 272.117 
-0.85 -0.41 -2.5749 1.11417 0.00910396 0.00873224 -3.63249e-05 0.00892769 1.57591e-07 272.043 
-0.93 -0.39 -0.913569 1.58802 0.00910475 0.00873772 -4.79692e-05 0.00893206 1.57569e-07 272.215 
-0.83 -0.41 -2.81385 1.17649 0.00911269 0.00873366 -3.13955e-05 0.00892738 1.57572e-07 272.067 
-0.91 -0.39 -1.35446 1.7533 0.00911056 0.00873664 -4.76093e-05 0.008936 1.57677e-07 272.149 
-0.99 -0.37 0.00454283 2.04914 0.00908662 0.00878425 -6.40994e-05 0.00894605 1.57936e-07 272.007 
-0.81 -0.41 -3.04305 1.29135 0.00911875 0.00872967 -2.30261e-05 0.00893217 1.57723e-07 271.952 
-0.89 -0.39 -1.67291 1.72663 0.00911633 0.0087337 -4.67643e-05 0.00893896 1.57683e-07 272.228 
-0.97 -0.37 -0.42002 1.94429 0.00909465 0.00876221 -6.21352e-05 0.0089377 1.57769e-07 272.041 
-0.79 -0.41 -3.39362 1.09321 0.00913403 0.00875167 -2.02793e-05 0.00895199 1.58006e-07 272.068 
-0.87 -0.39 -1.94816 1.72032 0.00911858 0.00872137 -4.42751e-05 0.00892995 1.57669e-07 271.977 
-0.95 -0.37 -0.810524 1.8026 0.00910183 0.00875021 -5.68432e-05 0.00893438 1.57695e-07 272.067 
-0.77 -0.41 -3.75767 1.1198 0.0091435 0.00877432 -1.38914e-05 0.00897022 1.58284e-07 272.143 
-0.85 -0.39 -2.33725 1.6141 0.00913025 0.00873381 -4.24699e-05 0.00894166 1.57861e-07 272.002 
-0.93 -0.37 -1.25476 1.90841 0.00910815 0.00873772 -5.7717e-05 0.00893472 1.57712e-07 272.049 
-0.75 -0.41 -4.00715 0.946911 0.00915411 0.0087777 -9.16567e-06 0.00897553 1.58344e-07 272.201 
-0.83 -0.39 -2.73498 1.48983 0.00913111 0.00872212 -3.8328e-05 0.00893305 1.57703e-07 272.014 
-0.91 -0.37 -1.46502 1.97677 0.00911749 0.00873322 -5.90308e-05 0.00893961 1.57702e-07 272.215 
-0.99 -0.35 -0.221432 2.25979 0.00909517 0.00878243 -7.42908e-05 0.00895293 1.58203e-07 271.757 
-0.81 -0.39 -3.12917 1.51041 0.00913731 0.00873199 -3.42288e-05 0.00894532 1.57787e-07 272.242 
-0.89 -0.37 -1.73508 2.02189 0.00912587 0.00873035 -5.1067e-05 0.00893778 1.57847e-07 271.91 
-0.97 -0.35 -0.436046 2.3587 0.00910204 0.00875526 -7.02305e-05 0.0089422 1.57876e-07 271.993 
-0.79 -0.39 -3.39544 1.46059 0.00913974 0.00874011 -2.79734e-05 0.00895029 1.58036e-07 271.963 
-0.87 -0.37 -2.11332 2.12428 0.00912897 0.00872065 -5.0424e-05 0.00893604 1.57736e-07 272.048 
-0.95 -0.35 -0.811897 2.138 0.00911513 0.00874501 -6.62367e-05 0.0089389 1.57787e-07 272.047 
-0.77 -0.39 -3.79703 1.42369 0.00915017 0.00877233 -2.1166e-05 0.00897143 1.58343e-07 272.077 
-0.85 -0.37 -2.52673 2.02689 0.00912978 0.0087279 -4.92824e-05 0.00893659 1.57829e-07 271.904 
-0.93 -0.35 -1.14336 2.23272 0.00912412 0.00873889 -6.38669e-05 0.0089411 1.57829e-07 272.04 
-0.83 -0.37 -2.96691 1.78866 0.00913529 0.00871476 -4.02531e-05 0.00893153 1.57738e-07 271.906 
-0.91 -0.35 -1.50202 2.35076 0.00912527 0.008733 -5.98266e-05 0.00893773 1.57715e-07 272.136 
-0.81 -0.37 -3.21701 1.78848 0.00914344 0.00873006 -3.55047e-05 0.00894657 1.57888e-07 272.106 
-0.89 -0.35 -1.9025 2.43605 0.0091239 0.00872155 -5.50602e-05 0.00893222 1.57729e-07 271.943 
-0.79 -0.37 -3.63522 1.88766 0.00914741 0.00873587 -3.3784e-05 0.00895685 1.58159e-07 271.952 
-0.87 -0.35 -2.28603 2.40181 0.00912931 0.0087203 -5.57257e-05 0.00893476 1.57769e-07 271.952 
-0.77 -0.37 -3.934 1.95163 0.00915462 0.00876664 -2.98513e-05 0.00896861 1.5816e-07 272.307 
-0.85 -0.35 -2.59771 2.43931 0.0091385 0.00871923 -4.84064e-05 0.0089389 1.57866e-07 271.91 
-0.83 -0.35 -2.99455 2.18051 0.00914172 0.0087144 -4.81366e-05 0.00893664 1.57836e-07 271.894 
-0.81 -0.35 -3.41863 2.15363 0.00914754 0.00872668 -4.77672e-05 0.00894948 1.57986e-07 272.025 
-0.79 -0.35 -3.72193 2.2265 0.00916086 0.00873414 -4.28657e-05 0.0089581 1.58206e-07 271.909 
-0.77 -0.35 -3.90527 2.20928 0.00916972 0.0087547 -3.54414e-05 0.00897461 1.58285e-07 272.274 
-0.75 -0.35 -4.17766 2.18265 0.00918094 0.00876792 -2.93129e-05 0.00898423 1.58572e-07 272.073 
-0.75 -0.49 -2.79482 0.175669 0.00907684 0.0087926 2.82828e-05 0.00893833 1.57587e-07 272.374 
-0.75 -0.43 -3.84938 0.672999 0.00913775 0.00878076 -3.48008e-06 0.00896881 1.58191e-07 272.259 
-0.75 -0.39 -4.38559 1.35969 0.00915223 0.00877181 -1.81086e-05 0.00897345 1.58372e-07 272.089 
-0.75 -0.37 -4.27323 1.81108 0.00916134 0.00876943 -1.698e-05 0.00897455 1.58361e-07 272.141 
-0.77 -0.33 -3.9181 2.4287 0.00916974 0.0087476 -4.72193e-05 0.00896804 1.58455e-07 271.782 
-0.73 -0.49 -3.0575 0.157842 0.00908408 0.0088106 2.50842e-05 0.00895458 1.57873e-07 272.375 
-0.73 -0.47 -3.39288 0.251579 0.00911189 0.00880395 2.32423e-05 0.00896824 1.5813e-07 272.347 
-0.73 -0.45 -3.78098 0.46199 0.00912713 0.00880385 1.3283e-05 0.00897304 1.58286e-07 272.225 
-0.73 -0.43 -4.20119 0.882199 0.00914699 0.00880248 1.43157e-06 0.00898304 1.58427e-07 272.285 
-0.73 -0.41 -4.34214 1.15197 0.00916191 0.00879829 -6.1793e-06 0.00898586 1.58615e-07 272.048 
-0.73 -0.39 -4.54781 1.43676 0.00915765 0.00879143 -7.31843e-06 0.0089776 1.58489e-07 272.014 
-0.73 -0.37 -4.81846 1.67135 0.00916658 0.00877881 -2.22096e-05 0.00897658 1.58524e-07 271.923 
-0.73 -0.35 -4.47587 1.98859 0.00918509 0.00878236 -2.66261e-05 0.00898743 1.58655e-07 272.026 
-0.81 -0.29 -3.36084 3.34407 0.00916108 0.00871959 -6.4286e-05 0.00894689 1.58099e-07 271.753 
-0.89 -0.27 -1.92914 3.84033 0.00912636 0.00869934 -8.74454e-05 0.00892953 1.57725e-07 271.868 
-0.97 -0.25 -0.472771 3.76415 0.00908954 0.00872978 -0.000110756 0.0089209 1.57749e-07 271.565 
-0.83 -0.29 -2.97805 3.32527 0.00915504 0.0087162 -6.82071e-05 0.00894544 1.5785e-07 272.137 
-0.91 -0.27 -1.44239 3.9629 0.00912511 0.0087074 -9.03049e-05 0.00893077 1.57765e-07 271.838 
-0.99 -0.25 -0.149323 3.74038 0.00908122 0.00875919 -0.000120223 0.00893498 1.5797e-07 271.612 
-0.79 -0.29 -3.65581 3.21397 0.00916676 0.00872418 -6.19135e-05 0.00895208 1.58157e-07 271.81 
-0.87 -0.27 -2.35199 3.9364 0.00913516 0.00870257 -7.85953e-05 0.00893593 1.57854e-07 271.84 
-0.95 -0.25 -0.835806 3.92997 0.00910566 0.00872102 -0.000105355 0.00892968 1.57801e-07 271.742 
-0.77 -0.29 -4.04438 3.24022 0.00917729 0.00873649 -5.82854e-05 0.00896538 1.58331e-07 271.915 
-0.85 -0.27 -2.62348 3.77564 0.00914951 0.00871533 -7.60452e-05 0.0089457 1.5797e-07 271.939 
-0.93 -0.25 -1.11335 4.08997 0.00911258 0.00871195 -0.000102315 0.00892703 1.57704e-07 271.828 
-0.75 -0.29 -4.55556 3.16339 0.0091872 0.00875881 -5.71462e-05 0.00898404 1.58612e-07 271.999 
-0.83 -0.27 -3.061 3.68764 0.00915672 0.00871738 -7.19916e-05 0.00894835 1.57956e-07 272.044 
-0.91 -0.25 -1.4298 4.23742 0.00911767 0.00869823 -9.73005e-05 0.00892272 1.57643e-07 271.802 
-0.99 -0.23 -0.0504167 3.9547 0.00907415 0.00875562 -0.000126628 0.00892753 1.57816e-07 271.651 
-0.81 -0.27 -3.45497 3.69869 0.00916102 0.00871521 -7.52828e-05 0.00894605 1.58023e-07 271.857 
-0.89 -0.25 -1.75194 4.22252 0.00912944 0.00869861 -9.06446e-05 0.00893433 1.57745e-07 271.979 
-0.97 -0.23 -0.306717 4.11872 0.00908646 0.00873015 -0.000121584 0.00892154 1.57703e-07 271.663 
-0.79 -0.27 -3.92036 3.57145 0.00917506 0.00872045 -6.95541e-05 0.00895135 1.5823e-07 271.663 
-0.87 -0.25 -2.07125 4.28345 0.00913771 0.00869742 -9.18424e-05 0.00893853 1.57924e-07 271.8 
-0.95 -0.23 -0.713752 4.34614 0.00909183 0.0087111 -0.000119052 0.00891356 1.57478e-07 271.808 
-0.77 -0.27 -4.29195 3.62179 0.00917681 0.00873734 -6.48494e-05 0.00896948 1.58476e-07 271.79 
-0.85 -0.25 -2.55726 4.19124 0.00914903 0.00871216 -8.84856e-05 0.00894625 1.57947e-07 271.994 
-0.93 -0.23 -1.16396 4.42146 0.00910957 0.00870758 -0.000110948 0.00892235 1.57551e-07 271.95 
-0.83 -0.25 -2.97817 4.13212 0.009156 0.0087065 -8.13562e-05 0.00893798 1.57933e-07 271.766 
-0.91 -0.23 -1.51925 4.43769 0.0091195 0.00869188 -0.000102509 0.00892301 1.57565e-07 271.946 
-0.99 -0.21 -0.0609786 4.1316 0.00908535 0.00874509 -0.000136246 0.00892683 1.57768e-07 271.713 
-0.81 -0.25 -3.31366 4.08641 0.00916402 0.0087245 -7.64258e-05 0.00895242 1.58105e-07 271.91 
-0.89 -0.23 -1.87102 4.7446 0.00912601 0.00869775 -0.000103774 0.00892599 1.57616e-07 271.949 
-0.97 -0.21 -0.31716 4.46109 0.00909596 0.00872006 -0.000130806 0.00891662 1.57652e-07 271.602 
-0.79 -0.25 -3.7753 4.12542 0.00915851 0.0087102 -7.76938e-05 0.00894543 1.58136e-07 271.645 
-0.87 -0.23 -2.36505 4.62035 0.00913929 0.00869394 -0.000104383 0.00892876 1.57778e-07 271.753 
-0.95 -0.21 -0.664381 4.70345 0.0091025 0.00871151 -0.000125857 0.00891996 1.57674e-07 271.664 
-0.77 -0.25 -4.19335 3.85078 0.00917131 0.0087363 -7.64932e-05 0.00895971 1.58309e-07 271.78 
-0.85 -0.23 -2.65183 4.60721 0.00914315 0.00870601 -9.21153e-05 0.00893405 1.57805e-07 271.868 
-0.93 -0.21 -1.14252 4.92612 0.00910513 0.00869572 -0.00012328 0.00891663 1.57659e-07 271.589 
-0.83 -0.23 -3.0001 4.57599 0.00914247 0.00869913 -8.72078e-05 0.00893249 1.57823e-07 271.79 
-0.91 -0.21 -1.52049 4.76425 0.00911688 0.00868852 -0.000113755 0.00891802 1.57619e-07 271.7 
-0.99 -0.19 -0.20408 4.40786 0.00907537 0.00873489 -0.000150593 0.00891753 1.57571e-07 271.769 
-0.81 -0.23 -3.52634 4.4439 0.00915171 0.00871648 -8.38254e-05 0.00894647 1.57955e-07 271.988 
-0.89 -0.21 -1.86394 5.13516 0.0091323 0.00870043 -0.000111086 0.00893168 1.57731e-07 271.924 
-0.97 -0.19 -0.515045 4.74462 0.00908523 0.00870991 -0.000138347 0.0089068 1.57456e-07 271.639 
-0.79 -0.23 -3.72121 4.48383 0.00916461 0.00871931 -7.97757e-05 0.00895386 1.58109e-07 271.948 
-0.87 -0.21 -2.18896 5.05331 0.00913216 0.00868124 -0.000107458 0.00892204 1.57736e-07 271.621 
-0.95 -0.19 -0.807433 5.0394 0.00910021 0.00871249 -0.00013566 0.00891678 1.57601e-07 271.693 
-0.77 -0.23 -3.98674 4.22497 0.00916445 0.00873069 -8.69231e-05 0.00895263 1.58201e-07 271.752 
-0.85 -0.21 -2.7219 4.99642 0.00913882 0.00869706 -9.76158e-05 0.00893002 1.5776e-07 271.823 
-0.93 -0.19 -0.928391 5.2923 0.00910863 0.00868744 -0.000127845 0.00891509 1.57651e-07 271.555 
-0.75 -0.23 -4.49047 4.06304 0.00917388 0.00874518 -8.20822e-05 0.00896809 1.58468e-07 271.761 
-0.83 -0.21 -3.11027 4.82637 0.00915365 0.00870192 -9.43124e-05 0.00894017 1.57835e-07 272.003 
-0.91 -0.19 -1.34026 5.28219 0.00911068 0.00868254 -0.00012379 0.00890985 1.57488e-07 271.678 
-0.81 -0.21 -3.30379 4.77576 0.00915485 0.00870782 -8.92749e-05 0.00894924 1.5814e-07 271.753 
-0.89 -0.19 -1.92569 5.48296 0.00911573 0.00869167 -0.000114827 0.00891965 1.57583e-07 271.813 
-0.79 -0.21 -3.70866 4.80324 0.00915593 0.00871923 -8.88637e-05 0.00895389 1.58228e-07 271.743 
-0.87 -0.19 -2.40229 5.45964 0.00911954 0.00868355 -0.000108136 0.00891838 1.57676e-07 271.613 
-0.77 -0.21 -4.15479 4.6665 0.00916552 0.00873401 -9.01673e-05 0.00896147 1.58352e-07 271.761 
-0.85 -0.19 -2.67731 5.36934 0.0091213 0.00868594 -0.000109375 0.00891777 1.57621e-07 271.69 
-0.75 -0.21 -4.57353 4.57268 0.00916848 0.00874356 -9.27927e-05 0.008966 1.5838e-07 271.849 
-0.83 -0.19 -2.98983 5.15072 0.00912041 0.00869881 -0.000103726 0.00892611 1.5776e-07 271.704 
-0.81 -0.19 -3.37423 5.18 0.0091374 0.00869858 -9.72428e-05 0.0089315 1.57863e-07 271.69 
-0.79 -0.19 -3.81974 5.13642 0.00915418 0.00872796 -9.81709e-05 0.00895676 1.5823e-07 271.827 
-0.77 -0.19 -4.08961 5.12859 0.00916596 0.00873272 -0.000100483 0.00896225 1.58358e-07 271.773 
-0.99 -0.33 -0.0613227 2.4704 0.00909761 0.00877845 -8.34939e-05 0.00894713 1.57971e-07 271.98 
-0.97 -0.33 -0.350206 2.6602 0.00911207 0.0087548 -8.25029e-05 0.00894578 1.57925e-07 272.018 
-0.91 -0.33 -1.53103 2.7657 0.00913703 0.00872302 -6.46417e-05 0.00893836 1.57681e-07 272.214 
-0.99 -0.31 -0.20141 2.79254 0.00909574 0.00877232 -9.63896e-05 0.00894135 1.57936e-07 271.865 
-0.97 -0.31 -0.430243 2.91263 0.00909994 0.00875276 -8.99423e-05 0.00893584 1.57937e-07 271.696 
-0.87 -0.33 -2.25821 2.81152 0.00915065 0.00872437 -5.64406e-05 0.00894954 1.57988e-07 272.023 
-0.95 -0.31 -0.791825 3.06339 0.00910575 0.00873059 -8.47018e-05 0.00892907 1.57684e-07 271.925 
-0.85 -0.33 -2.54368 2.74074 0.00914532 0.00871262 -5.49631e-05 0.00893783 1.57727e-07 272.118 
-0.93 -0.31 -1.18085 2.96194 0.00911945 0.00873099 -8.42562e-05 0.00893875 1.57745e-07 272.114 
-0.91 -0.31 -1.55338 3.03643 0.00912991 0.00871606 -7.06854e-05 0.00894033 1.57717e-07 272.211 
-0.99 -0.29 -0.150369 3.0983 0.00908888 0.0087702 -0.000103306 0.00894199 1.57994e-07 271.784 
-0.81 -0.33 -3.36265 2.52792 0.00915733 0.00872587 -5.19423e-05 0.00894998 1.58088e-07 271.865 
-0.89 -0.31 -1.82787 3.20521 0.00913707 0.0087119 -6.53367e-05 0.00893743 1.57831e-07 271.926 
-0.97 -0.29 -0.418903 3.14671 0.00910092 0.00874425 -9.85357e-05 0.00893212 1.57796e-07 271.824 
-0.87 -0.31 -2.28307 3.10447 0.00914402 0.00871733 -6.1104e-05 0.00893991 1.57896e-07 271.89 
-0.95 -0.29 -0.743038 3.4424 0.00910917 0.00872791 -9.36699e-05 0.00893069 1.57718e-07 271.916 
-0.85 -0.31 -2.60585 2.972 0.00915315 0.00871475 -5.8891e-05 0.00894522 1.57965e-07 271.931 
-0.93 -0.29 -1.09288 3.29399 0.00911208 0.00872152 -8.77239e-05 0.00892764 1.5768e-07 271.888 
-0.83 -0.31 -2.90709 3.01122 0.0091581 0.00871753 -5.76158e-05 0.0089498 1.57999e-07 272.012 
-0.91 -0.29 -1.42909 3.47451 0.00911484 0.00870655 -8.20115e-05 0.00892093 1.57566e-07 271.88 
-0.99 -0.27 -0.125744 3.43063 0.00910135 0.0087635 -0.00010893 0.00894529 1.58147e-07 271.622 
-0.81 -0.31 -3.26564 2.96502 0.00916377 0.00872067 -5.94405e-05 0.00895717 1.58077e-07 272.102 
-0.89 -0.29 -1.79146 3.49477 0.00912599 0.00870771 -7.72517e-05 0.00892957 1.57662e-07 271.978 
-0.97 -0.27 -0.518686 3.44253 0.00910464 0.00873971 -0.000102128 0.00893758 1.57891e-07 271.827 
-0.79 -0.31 -3.74417 2.78148 0.00916826 0.00872875 -5.70833e-05 0.00895932 1.5825e-07 271.871 
-0.87 -0.29 -2.11211 3.54513 0.00913875 0.00871162 -6.69743e-05 0.00893766 1.57894e-07 271.824 
-0.95 -0.27 -0.685037 3.65968 0.00910738 0.00872342 -9.81147e-05 0.00892875 1.57658e-07 271.96 
-0.77 -0.31 -4.18488 2.87202 0.00917002 0.00873923 -5.07343e-05 0.00895773 1.58246e-07 271.829 
-0.85 -0.29 -2.6195 3.38244 0.00914534 0.00871355 -6.60986e-05 0.00894124 1.57907e-07 271.912 
-0.93 -0.27 -1.04036 3.61135 0.00911373 0.00871422 -9.25449e-05 0.00892516 1.57521e-07 272.088 
-0.95 -0.33 -0.704005 2.5705 0.00911898 0.00873448 -7.74229e-05 0.0089392 1.57858e-07 271.933 
-0.93 -0.33 -1.13919 2.58735 0.00912888 0.00873785 -6.84427e-05 0.00894227 1.57819e-07 272.094 
-0.89 -0.33 -1.99242 2.77954 0.00914697 0.00871659 -5.99272e-05 0.00894153 1.57834e-07 272.046 
-0.83 -0.33 -2.92046 2.60972 0.00914983 0.00871348 -5.43378e-05 0.00894468 1.57982e-07 271.886 
-0.75 -0.31 -4.49599 2.75547 0.00917486 0.00875567 -4.88172e-05 0.00897637 1.58494e-07 271.969 
-0.75 -0.27 -4.52657 3.64003 0.00918737 0.00875384 -6.77057e-05 0.00898147 1.58631e-07 271.888 
-0.75 -0.25 -4.36001 3.74389 0.00917933 0.00875208 -7.13708e-05 0.00897281 1.58528e-07 271.803 
-0.75 -0.19 -4.4866 4.99385 0.00916662 0.0087395 -9.23721e-05 0.00896385 1.58358e-07 271.822 
-0.79 -0.33 -3.59471 2.43303 0.00916038 0.00873064 -5.21616e-05 0.00895482 1.58228e-07 271.772 
-0.75 -0.33 -4.27934 2.5014 0.00917684 0.00875796 -4.04127e-05 0.00897525 1.58548e-07 271.841 
-0.81 -0.17 -3.53236 5.5154 0.00912983 0.00869688 -0.000113275 0.0089266 1.57815e-07 271.624 
-0.79 -0.17 -3.85947 5.57481 0.00914175 0.00872625 -0.000115191 0.00895069 1.5815e-07 271.78 
-0.75 -0.17 -4.46424 5.44924 0.00916815 0.00874195 -0.000104335 0.00896434 1.58299e-07 271.939 
-0.73 -0.31 -4.82436 2.88275 0.00919206 0.00877913 -5.10577e-05 0.0089979 1.58867e-07 271.98 
-0.73 -0.29 -4.83447 3.21058 0.00918632 0.00877475 -5.63474e-05 0.00899144 1.58829e-07 271.851 
-0.73 -0.27 -4.87596 3.33826 0.00919677 0.00877762 -6.66794e-05 0.00899785 1.58874e-07 271.968 
-0.73 -0.25 -4.6282 3.78258 0.00918271 0.00877106 -6.78032e-05 0.00898709 1.58809e-07 271.753 
-0.73 -0.23 -4.8872 4.17015 0.00918785 0.00877148 -7.56524e-05 0.00898801 1.58835e-07 271.737 
-0.73 -0.21 -4.85149 4.39389 0.00917794 0.00876456 -9.13815e-05 0.00898386 1.58639e-07 271.946 
-0.73 -0.19 -4.91423 4.73175 0.00916994 0.0087742 -9.82114e-05 0.00897944 1.58574e-07 271.924 
-0.79 -0.05 -3.38831 7.65762 0.00905651 0.00871877 -0.000149616 0.00890135 1.57363e-07 271.633 
-0.87 -0.03 -2.18927 8.27883 0.00900019 0.00863152 -0.000173827 0.00883361 1.56366e-07 271.285 
-0.83 -0.05 -2.79121 7.9596 0.00903639 0.00868516 -0.000153959 0.00888286 1.57131e-07 271.469 
-0.91 -0.03 -1.48636 8.31381 0.00899196 0.00862238 -0.000185813 0.00883067 1.56235e-07 271.422 
-0.81 -0.05 -2.99777 7.62806 0.00904981 0.00869644 -0.000147827 0.00889352 1.57285e-07 271.529 
-0.89 -0.03 -1.82189 8.30098 0.00899714 0.00863222 -0.000175559 0.00883426 1.56334e-07 271.361 
-0.77 -0.05 -3.74952 7.25526 0.00906142 0.00872241 -0.000155603 0.00890871 1.5751e-07 271.604 
-0.85 -0.03 -2.51645 8.2247 0.00900835 0.00864605 -0.000173949 0.00884843 1.56571e-07 271.384 
-0.75 -0.05 -4.03012 7.05394 0.00906824 0.00874896 -0.000156873 0.00892157 1.57649e-07 271.756 
-0.83 -0.03 -2.70139 8.30034 0.00902432 0.00867574 -0.00016303 0.00887074 1.56933e-07 271.442 
-0.81 -0.03 -3.09818 7.91264 0.00903217 0.00869447 -0.000157197 0.00887888 1.57035e-07 271.513 
-0.79 -0.03 -3.19533 8.03465 0.00904196 0.0087197 -0.000158247 0.0088968 1.57386e-07 271.454 
-0.77 -0.03 -3.62402 7.582 0.00905195 0.00872767 -0.000158965 0.00890234 1.57446e-07 271.521 
-0.95 -0.17 -0.736595 5.25085 0.00908113 0.00869887 -0.000142824 0.0089009 1.57423e-07 271.516 
-0.99 -0.15 -0.139509 5.02186 0.00904046 0.00871067 -0.000172204 0.00889454 1.57232e-07 271.652 
-0.89 -0.17 -2.05384 5.84283 0.00910862 0.00867835 -0.000123356 0.00891127 1.57423e-07 271.833 
-0.97 -0.15 -0.517508 5.39067 0.00906425 0.0087042 -0.000166844 0.00889681 1.57269e-07 271.657 
-0.95 -0.15 -0.876765 5.71298 0.00907456 0.00868331 -0.000151673 0.00888976 1.57188e-07 271.582 
-0.93 -0.15 -1.19041 6.1041 0.00907902 0.00867322 -0.00014074 0.0088923 1.5732e-07 271.431 
-0.83 -0.17 -3.12042 5.6498 0.00912957 0.00870291 -0.000107478 0.00893176 1.57804e-07 271.8 
-0.91 -0.15 -1.4838 6.11224 0.00909087 0.00867882 -0.000138332 0.00890427 1.57397e-07 271.664 
-0.99 -0.13 -0.2305 5.38808 0.00904437 0.00870906 -0.000188872 0.00889051 1.57145e-07 271.679 
-0.89 -0.15 -1.72756 6.20839 0.00908855 0.00866256 -0.000128468 0.00889387 1.57232e-07 271.632 
-0.97 -0.13 -0.52024 5.78969 0.00904769 0.00868492 -0.000173975 0.00888302 1.57115e-07 271.502 
-0.87 -0.15 -2.37575 6.04843 0.00910033 0.00868033 -0.000125236 0.00891079 1.57445e-07 271.779 
-0.95 -0.13 -0.976757 6.10412 0.00906015 0.00867103 -0.000162338 0.00888316 1.57136e-07 271.47 
-0.77 -0.17 -4.18979 5.28465 0.00915462 0.0087246 -0.000104887 0.00895609 1.58219e-07 271.826 
-0.85 -0.15 -2.74005 6.20912 0.00911817 0.00867787 -0.000117408 0.00891613 1.5767e-07 271.554 
-0.93 -0.13 -1.21966 6.25604 0.00908077 0.00867308 -0.000155022 0.00889648 1.57283e-07 271.623 
-0.83 -0.15 -2.98248 5.99362 0.0091271 0.00869614 -0.000116198 0.0089271 1.5779e-07 271.682 
-0.91 -0.13 -1.55351 6.45194 0.00908273 0.00866146 -0.000145852 0.00888903 1.57211e-07 271.52 
-0.99 -0.11 -0.0766566 5.67436 0.00904265 0.00869643 -0.000186449 0.00888514 1.57012e-07 271.744 
-0.81 -0.15 -3.37511 5.90819 0.00913377 0.00870825 -0.000117415 0.00893451 1.57957e-07 271.621 
-0.89 -0.13 -1.93783 6.58492 0.00909066 0.00866553 -0.000132988 0.00889385 1.57282e-07 271.545 
-0.97 -0.11 -0.486518 6.20971 0.00903927 0.00867451 -0.000177991 0.00887692 1.56992e-07 271.528 
-0.79 -0.15 -3.74289 5.81174 0.00913401 0.00872127 -0.000120171 0.00894544 1.5814e-07 271.637 
-0.87 -0.13 -2.32756 6.67501 0.00909744 0.00866949 -0.000134537 0.00890036 1.57441e-07 271.468 
-0.95 -0.11 -0.782421 6.40393 0.00904643 0.00866718 -0.000174524 0.00887284 1.57051e-07 271.302 
-0.77 -0.15 -4.15113 5.69044 0.00913551 0.00872084 -0.000117156 0.00894286 1.58098e-07 271.632 
-0.85 -0.13 -2.68446 6.3603 0.00910124 0.0086754 -0.000129305 0.0089036 1.57456e-07 271.542 
-0.93 -0.11 -1.24243 6.71863 0.00905256 0.00865858 -0.000165788 0.00887263 1.57022e-07 271.345 
-0.75 -0.15 -4.42405 5.58687 0.00914346 0.00874241 -0.000114048 0.00895471 1.58255e-07 271.723 
-0.83 -0.13 -2.98072 6.34051 0.00911344 0.008693 -0.000126843 0.00891842 1.57562e-07 271.81 
-0.91 -0.11 -1.64016 6.82682 0.00906146 0.00865001 -0.00015234 0.00887507 1.57011e-07 271.439 
-0.99 -0.09 -0.11416 5.88595 0.00900411 0.00868367 -0.000197487 0.00885986 1.56756e-07 271.414 
-0.81 -0.13 -3.45225 6.38338 0.00911561 0.00870635 -0.000122001 0.00892763 1.5784e-07 271.611 
-0.89 -0.11 -1.99043 6.99317 0.0090759 0.0086614 -0.000146543 0.00888753 1.57295e-07 271.329 
-0.97 -0.09 -0.357727 6.66619 0.00902606 0.00866764 -0.000189112 0.0088658 1.56796e-07 271.528 
-0.79 -0.13 -3.78143 6.21399 0.00912463 0.00871927 -0.00012046 0.0089377 1.57952e-07 271.725 
-0.87 -0.11 -2.26102 6.9902 0.00908392 0.00866478 -0.000139974 0.00889288 1.5732e-07 271.449 
-0.95 -0.09 -0.785418 6.79521 0.00903575 0.00865955 -0.000179073 0.00887013 1.56824e-07 271.612 
-0.77 -0.13 -4.04384 6.05517 0.00912556 0.00871671 -0.000119404 0.00893378 1.57998e-07 271.527 
-0.85 -0.11 -2.65246 6.80001 0.0090881 0.00867407 -0.000132781 0.00889677 1.57454e-07 271.336 
-0.93 -0.09 -1.1164 7.01068 0.00904143 0.00864909 -0.000173348 0.00886888 1.56952e-07 271.352 
-0.83 -0.11 -3.1273 6.77345 0.0090866 0.00868385 -0.000130337 0.0089033 1.57511e-07 271.437 
-0.91 -0.09 -1.47318 7.25039 0.00904591 0.00864121 -0.000161287 0.00886184 1.56868e-07 271.281 
-0.99 -0.07 -0.21644 6.18644 0.00900176 0.00867598 -0.000205413 0.0088562 1.56689e-07 271.419 
-0.81 -0.11 -3.43001 6.60769 0.00909733 0.00871062 -0.000130106 0.00892118 1.57563e-07 271.894 
-0.89 -0.09 -1.91605 7.36396 0.0090561 0.00865333 -0.000157546 0.00887267 1.57012e-07 271.364 
-0.97 -0.07 -0.513731 6.92942 0.00899842 0.00865686 -0.000201174 0.00884554 1.56475e-07 271.462 
-0.79 -0.11 -3.67849 6.56778 0.00910411 0.00871279 -0.000130536 0.00892624 1.57869e-07 271.521 
-0.87 -0.09 -2.15256 7.1836 0.00906809 0.00865702 -0.000147309 0.00888187 1.57223e-07 271.281 
-0.95 -0.07 -0.790695 7.18823 0.00900132 0.00865095 -0.000187748 0.00885013 1.56521e-07 271.524 
-0.77 -0.11 -4.06005 6.26758 0.009121 0.00871683 -0.000132162 0.00893313 1.57964e-07 271.567 
-0.85 -0.09 -2.42704 7.20366 0.00907533 0.00866792 -0.000141205 0.00888885 1.57216e-07 271.506 
-0.93 -0.07 -1.29439 7.46705 0.009014 0.00863741 -0.0001792 0.00885175 1.56625e-07 271.392 
-0.75 -0.11 -4.40809 6.10188 0.00913502 0.00874684 -0.000130299 0.00895482 1.58288e-07 271.668 
-0.83 -0.09 -2.78178 7.21585 0.00908531 0.00868201 -0.000138039 0.00890131 1.57429e-07 271.519 
-0.91 -0.07 -1.63641 7.5941 0.00902741 0.00863693 -0.00017377 0.00885595 1.56679e-07 271.429 
-0.99 -0.05 -0.148882 6.60073 0.00898376 0.00866614 -0.000215249 0.00884264 1.56454e-07 271.411 
-0.81 -0.09 -3.30199 7.02767 0.00909451 0.00871262 -0.000139725 0.00891951 1.57721e-07 271.569 
-0.89 -0.07 -1.90859 7.67931 0.00903447 0.00864548 -0.000165273 0.00886267 1.56876e-07 271.293 
-0.97 -0.05 -0.591384 7.16024 0.00899758 0.00864887 -0.000204684 0.00884622 1.56513e-07 271.418 
-0.79 -0.09 -3.73628 6.85538 0.00909572 0.00871453 -0.000135365 0.00891813 1.57696e-07 271.571 
-0.87 -0.07 -2.33295 7.5968 0.00903913 0.0086438 -0.000156458 0.00885992 1.56746e-07 271.434 
-0.95 -0.05 -0.854938 7.61413 0.00900522 0.00864123 -0.000195572 0.00884499 1.56483e-07 271.432 
-0.77 -0.09 -4.04813 6.69053 0.00909288 0.00871659 -0.000133796 0.00891962 1.577e-07 271.609 
-0.85 -0.07 -2.59294 7.44118 0.00904976 0.00865998 -0.000149422 0.00887774 1.57008e-07 271.526 
-0.93 -0.05 -1.18797 7.88414 0.00900236 0.00862829 -0.000181767 0.00883952 1.56431e-07 271.354 
-0.75 -0.09 -4.34261 6.50255 0.00909303 0.0087458 -0.000142703 0.00893262 1.57903e-07 271.655 
-0.83 -0.07 -3.0666 7.7328 0.00905798 0.00868816 -0.000145048 0.00888961 1.57105e-07 271.721 
-0.91 -0.05 -1.55898 7.93392 0.00900304 0.00862862 -0.000176319 0.00884081 1.56463e-07 271.338 
-0.99 -0.03 -0.218034 7.03889 0.00895725 0.00865102 -0.000226696 0.00882207 1.56115e-07 271.366 
-0.81 -0.07 -3.32078 7.45594 0.00905823 0.00870267 -0.000145167 0.00889969 1.57325e-07 271.648 
-0.89 -0.05 -1.84028 7.96967 0.00900622 0.00863723 -0.000172899 0.0088456 1.56573e-07 271.295 
-0.97 -0.03 -0.479454 7.43703 0.00896763 0.00863755 -0.000211518 0.00882289 1.56193e-07 271.256 