ITEM: TIMESTEP
1060000
ITEM: NUMBER OF CELLS
5000
ITEM: BOX BOUNDS ss ss pp
-0.5 0.5
-1 1
-0.5 0.5
ITEM: CELLS xc yc f_U[*] f_V[*] f_Tau[1] f_Tau[2] f_Tau[3] f_Press[*] f_Mrho[*] f_Ttra[*] 
-0.49 -0.99 -0.0411114 0.0885367 0.00976261 0.00973541 7.98805e-06 0.00974914 1.71475e-07 273.021 
-0.47 -0.99 -0.134155 0.0228199 0.00974916 0.00971903 6.03418e-06 0.00973803 1.71412e-07 272.81 
-0.45 -0.99 -0.25473 0.00841891 0.00975278 0.00972998 5.2552e-06 0.00974509 1.71426e-07 272.985 
-0.49 -0.97 -0.0556272 0.147453 0.00974627 0.00972327 1.01176e-05 0.00973433 1.71314e-07 272.862 
-0.43 -0.99 -0.276184 -0.0346982 0.00974724 0.00972078 2.67918e-06 0.00973771 1.71316e-07 272.954 
-0.47 -0.97 -0.106894 0.0799543 0.00974921 0.0097226 1.21601e-05 0.00973971 1.71369e-07 272.925 
-0.41 -0.99 -0.0856339 -0.0695522 0.00974337 0.00972543 7.5682e-07 0.00973815 1.71311e-07 272.975 
-0.45 -0.97 -0.0472037 0.0518737 0.00974654 0.00973453 3.82722e-06 0.00974561 1.71448e-07 272.964 
-0.49 -0.95 0.0636591 0.0905978 0.00973761 0.0097142 2.35689e-06 0.00973225 1.7127e-07 272.874 
-0.39 -0.99 -0.136591 0.0876163 0.00974582 0.00972734 1.45216e-06 0.0097378 1.71174e-07 273.183 
-0.43 -0.97 0.0135485 0.0456359 0.00974835 0.00972123 1.73759e-06 0.00973932 1.71313e-07 273.004 
-0.47 -0.95 0.104485 0.0896114 0.00975272 0.00972701 -2.38325e-07 0.00974078 1.71387e-07 272.927 
-0.37 -0.99 -0.182423 -0.00808481 0.00974352 0.00972872 7.95798e-06 0.00973953 1.7132e-07 272.999 
-0.41 -0.97 -0.16197 -0.179665 0.00974546 0.00972542 3.86211e-06 0.00973817 1.71374e-07 272.875 
-0.45 -0.95 0.185889 -0.0395171 0.00976063 0.00973745 5.43979e-06 0.00975584 1.71611e-07 272.993 
-0.49 -0.93 -0.0157996 0.0445786 0.00976911 0.00972227 -6.01817e-07 0.00974996 1.71529e-07 272.957 
-0.35 -0.99 -0.13692 -0.0969601 0.00973737 0.0097117 3.96183e-06 0.00972218 1.71115e-07 272.838 
-0.39 -0.97 -0.0362907 0.055403 0.00974287 0.00972552 6.33437e-06 0.00974132 1.71448e-07 272.845 
-0.43 -0.95 0.130577 0.0521796 0.00975996 0.00971852 7.0694e-06 0.00974642 1.71472e-07 272.95 
-0.47 -0.93 0.0123091 0.0458812 0.00976031 0.00972308 7.0201e-07 0.00974589 1.71539e-07 272.829 
-0.33 -0.99 -0.0788451 0.0145437 0.009735 0.00972889 6.54342e-06 0.00972961 1.71246e-07 272.839 
-0.37 -0.97 0.00395776 -0.0484803 0.00974007 0.00972768 4.11293e-06 0.00974107 1.7133e-07 273.026 
-0.41 -0.95 0.0270681 0.0409931 0.00975733 0.00972695 2.95518e-06 0.00974306 1.71529e-07 272.765 
-0.45 -0.93 -0.0817611 0.0604203 0.00975621 0.00973026 5.82588e-06 0.00974498 1.71534e-07 272.811 
-0.49 -0.91 -0.0146705 0.157497 0.00977326 0.00972736 1.16699e-05 0.00975302 1.71477e-07 273.126 
-0.35 -0.97 -0.0395493 -0.0424086 0.00973834 0.00971353 1.03803e-05 0.00973019 1.71185e-07 272.952 
-0.39 -0.95 -0.156687 -0.0279211 0.00975363 0.00972352 6.90179e-06 0.00973879 1.71454e-07 272.764 
-0.43 -0.93 -0.0834173 0.095321 0.00975411 0.00972331 1.94064e-06 0.00973698 1.71388e-07 272.818 
-0.47 -0.91 -0.219276 0.0405869 0.00976533 0.00972413 6.7685e-06 0.0097453 1.71534e-07 272.82 
-0.33 -0.97 -0.119772 -0.0104874 0.00974298 0.00972507 6.2977e-06 0.00973945 1.71458e-07 272.776 
-0.37 -0.95 -0.132497 -0.0438474 0.00975444 0.00972178 1.18988e-05 0.00974202 1.71298e-07 273.103 
-0.41 -0.93 -0.0787379 0.0398811 0.00975309 0.00972181 1.084e-05 0.0097322 1.71278e-07 272.86 
-0.45 -0.91 -0.0719575 0.0317012 0.0097653 0.00972418 6.13036e-06 0.00975001 1.71528e-07 272.961 
-0.49 -0.89 -0.00555281 0.134506 0.00977131 0.00972661 1.17359e-05 0.00975037 1.71461e-07 273.078 
-0.35 -0.95 -0.069616 -0.0187401 0.00975479 0.00971826 3.84297e-06 0.00973947 1.71344e-07 272.958 
-0.39 -0.93 0.0135989 -0.0407137 0.00975101 0.00972321 7.80393e-06 0.00974 1.71567e-07 272.619 
-0.43 -0.91 -0.159419 0.071473 0.00976191 0.0097297 9.28728e-06 0.00974348 1.71348e-07 273.064 
-0.47 -0.89 0.0937417 0.125251 0.00977037 0.00973097 9.00501e-06 0.00974946 1.71607e-07 272.82 
-0.37 -0.93 -0.0106956 0.000878696 0.00975478 0.00972281 2.48873e-06 0.00974452 1.71414e-07 272.989 
-0.41 -0.91 -0.0606049 0.00235922 0.00976723 0.00971304 2.62049e-06 0.00973885 1.71332e-07 272.96 
-0.45 -0.89 -0.0835101 0.153286 0.00976303 0.00971899 5.26004e-06 0.00974489 1.7145e-07 272.941 
-0.49 -0.87 -0.034795 0.16287 0.00975052 0.0097148 -2.11928e-07 0.00973167 1.71262e-07 272.871 
-0.35 -0.93 -0.259048 0.0273138 0.00975813 0.0097201 8.64361e-06 0.00973971 1.71453e-07 272.792 
-0.39 -0.91 -0.0837927 -0.0507244 0.009772 0.00972893 1.18961e-05 0.00975386 1.71694e-07 272.805 
-0.43 -0.89 -0.143114 0.0147613 0.00976792 0.00973614 6.28171e-06 0.0097523 1.71477e-07 273.107 
-0.47 -0.87 0.071935 0.0996399 0.00975959 0.00973102 1.06167e-05 0.00974241 1.71405e-07 272.943 
-0.37 -0.91 -0.224328 0.199528 0.00975771 0.00972249 1.01044e-05 0.00974001 1.71611e-07 272.549 
-0.41 -0.89 -0.12946 -0.0486126 0.00976056 0.00971136 4.8638e-06 0.00974103 1.7149e-07 272.77 
-0.45 -0.87 -0.104753 0.208245 0.0097652 0.00972025 1.01952e-05 0.00974958 1.71505e-07 272.986 
-0.49 -0.85 -0.0610236 0.15223 0.00975092 0.00971364 -5.88855e-08 0.00973018 1.712e-07 272.927 
-0.35 -0.91 -0.133468 0.111235 0.00974966 0.00972084 3.27614e-06 0.0097353 1.71401e-07 272.751 
-0.39 -0.89 -0.0778084 0.127559 0.00975381 0.00971721 1.05829e-05 0.00974286 1.71471e-07 272.851 
-0.43 -0.87 -0.111915 0.101978 0.00975369 0.00973558 1.12566e-05 0.00974876 1.7155e-07 272.891 
-0.47 -0.85 -0.157846 0.18869 0.00975274 0.00972145 2.31002e-06 0.00974253 1.71338e-07 273.054 
-0.33 -0.91 -0.195833 -0.0444043 0.00975526 0.00971916 1.07719e-05 0.00973961 1.71401e-07 272.871 
-0.37 -0.89 -0.163045 0.0902069 0.00976432 0.00973379 1.51649e-05 0.00975632 1.71695e-07 272.871 
-0.41 -0.87 -0.21722 -0.0553112 0.00975855 0.00971348 7.54995e-06 0.00973972 1.71534e-07 272.663 
-0.45 -0.85 -0.121925 0.212376 0.00975829 0.0097182 7.88234e-06 0.00974286 1.71341e-07 273.059 
-0.35 -0.89 -0.225183 0.134469 0.00976645 0.00971899 1.07991e-05 0.00974038 1.71469e-07 272.785 
-0.39 -0.87 -0.295551 0.129 0.00976738 0.00971582 5.33883e-06 0.00974568 1.71583e-07 272.753 
-0.43 -0.85 -0.204379 0.163676 0.00977053 0.00973857 7.32269e-06 0.00974993 1.71641e-07 272.778 
-0.37 -0.87 -0.348518 0.194462 0.0097698 0.00972923 7.7156e-06 0.00975356 1.71657e-07 272.854 
-0.41 -0.85 -0.176791 0.0603545 0.00976892 0.00971592 9.16244e-06 0.0097448 1.71588e-07 272.72 
-0.35 -0.87 -0.309596 0.0822785 0.00976737 0.00972127 1.11371e-05 0.00974254 1.7146e-07 272.86 
-0.39 -0.85 -0.259846 0.293618 0.00976539 0.00971693 3.67904e-06 0.00974693 1.7157e-07 272.808 
-0.33 -0.87 -0.35699 0.122618 0.00976349 0.00972205 1.33254e-05 0.00974509 1.71545e-07 272.797 
-0.37 -0.85 -0.294629 0.0294839 0.00976495 0.00972209 9.89293e-06 0.00974644 1.71485e-07 272.93 
-0.35 -0.85 -0.246043 0.130865 0.00976534 0.00971874 1.2601e-05 0.00974262 1.71386e-07 272.98 
-0.33 -0.85 -0.374519 0.330929 0.00976624 0.00972439 1.33475e-05 0.00974348 1.71419e-07 272.951 
-0.31 -0.99 -0.0162571 -0.0261828 0.00972985 0.00971426 1.35167e-05 0.00972007 1.7118e-07 272.676 
-0.29 -0.99 -0.0935073 0.0482645 0.00972914 0.00971686 8.44929e-06 0.00972832 1.71169e-07 272.925 
-0.27 -0.99 -0.136936 0.00846871 0.00974243 0.00972759 6.94278e-06 0.00973495 1.71161e-07 273.123 
-0.31 -0.97 -0.364208 0.0033647 0.00974894 0.00972039 6.90372e-06 0.00973668 1.71363e-07 272.85 
-0.29 -0.97 -0.425252 0.184744 0.00975565 0.00971962 7.5259e-06 0.00974709 1.71482e-07 272.953 
-0.33 -0.95 -0.0816163 0.112597 0.00975236 0.00972284 9.82534e-06 0.00973935 1.71339e-07 272.963 
-0.27 -0.97 -0.290267 -0.108813 0.00974286 0.00972123 9.84712e-06 0.00973705 1.71344e-07 272.891 
-0.31 -0.95 -0.138558 0.195657 0.00974982 0.00972136 8.19729e-06 0.00973369 1.71314e-07 272.845 
-0.29 -0.95 -0.0960421 0.0871551 0.00974324 0.00971151 9.6421e-06 0.00972676 1.71255e-07 272.745 
-0.33 -0.93 -0.266701 0.155447 0.00975869 0.00971859 3.6886e-06 0.00973677 1.71338e-07 272.893 
-0.27 -0.95 -0.312169 -0.078476 0.00974907 0.0097269 6.98406e-06 0.00973886 1.71344e-07 272.941 
-0.31 -0.93 -0.0842024 0.0595667 0.00976001 0.00971893 8.7026e-06 0.00974085 1.71544e-07 272.678 
-0.29 -0.93 -0.168933 0.228615 0.00976349 0.00971502 1.05443e-05 0.00974163 1.71474e-07 272.812 
-0.27 -0.93 -0.18786 0.111741 0.00976207 0.00972343 8.60679e-06 0.00974535 1.71525e-07 272.835 
-0.31 -0.91 -0.219413 0.156642 0.00975557 0.00971828 9.89627e-06 0.00973879 1.71436e-07 272.793 
-0.29 -0.91 -0.263804 0.176464 0.00975419 0.00971454 2.13393e-06 0.00973252 1.71392e-07 272.688 
-0.33 -0.89 -0.260905 0.0168268 0.00975848 0.00972123 6.22602e-06 0.00974203 1.71425e-07 272.901 
-0.27 -0.91 -0.123948 0.138967 0.00975736 0.00972299 6.05565e-06 0.00973831 1.71498e-07 272.681 
-0.31 -0.89 -0.2112 0.189443 0.0097607 0.00972045 3.30832e-06 0.00974496 1.71485e-07 272.887 
-0.29 -0.89 -0.18021 0.0487295 0.00975741 0.00971427 9.3363e-06 0.0097398 1.71322e-07 273.003 
-0.27 -0.89 -0.303569 0.253583 0.00975131 0.00971984 1.0352e-05 0.00974187 1.71458e-07 272.844 
-0.31 -0.87 -0.487159 0.183693 0.00975815 0.00972124 7.97371e-06 0.00974039 1.71458e-07 272.802 
-0.29 -0.87 -0.449239 0.11308 0.00975446 0.00970875 9.31301e-06 0.00973671 1.71297e-07 272.955 
-0.27 -0.87 -0.410582 0.245432 0.0097562 0.00972001 1.50361e-05 0.00974224 1.71407e-07 272.936 
-0.31 -0.85 -0.386937 0.0309084 0.0097628 0.00972352 1.6431e-05 0.00974717 1.71479e-07 272.96 
-0.29 -0.85 -0.262067 0.166808 0.00975437 0.0097076 1.29929e-05 0.0097392 1.71388e-07 272.882 
-0.27 -0.85 -0.312928 0.176865 0.00975251 0.00971714 1.20879e-05 0.00973788 1.71177e-07 273.18 
-0.25 -0.99 -0.236014 0.0942445 0.00974833 0.0097373 1.20097e-05 0.0097462 1.71399e-07 273.059 
-0.25 -0.97 -0.184441 0.0975862 0.00974236 0.00973027 7.93944e-06 0.00974021 1.71424e-07 272.852 
-0.25 -0.95 -0.398133 0.0817103 0.00974875 0.0097308 8.59001e-06 0.00974279 1.7139e-07 272.979 
-0.25 -0.93 -0.224173 0.0788171 0.00975958 0.00973318 1.13272e-05 0.00974445 1.71548e-07 272.773 
-0.25 -0.91 -0.270857 0.102414 0.00975801 0.00972993 1.03554e-05 0.00974601 1.71622e-07 272.699 
-0.25 -0.89 -0.33722 0.226739 0.00974822 0.00972292 1.44575e-05 0.00973624 1.71379e-07 272.813 
-0.25 -0.87 -0.428403 0.249171 0.00975164 0.00971867 1.62954e-05 0.00973832 1.71325e-07 272.956 
-0.25 -0.85 -0.24017 0.28882 0.009761 0.00972096 1.12985e-05 0.00974557 1.71408e-07 273.027 
-0.25 -0.83 -0.397003 0.212912 0.00976337 0.00971785 7.87458e-06 0.00974542 1.71403e-07 273.031 
-0.33 -0.81 -0.120049 0.236602 0.00976193 0.00971203 1.23564e-05 0.00973973 1.71416e-07 272.852 
-0.31 -0.81 -0.230478 0.193687 0.0097769 0.00972406 1.36609e-05 0.00975305 1.71493e-07 273.102 
-0.29 -0.81 -0.228972 0.148865 0.00978054 0.00972377 9.71969e-06 0.00975546 1.71553e-07 273.073 
-0.27 -0.81 -0.302247 0.265153 0.00977736 0.00971973 1.32167e-05 0.0097546 1.71552e-07 273.052 
-0.31 -0.79 -0.246094 0.13706 0.00976013 0.00972065 6.75713e-06 0.00974088 1.71468e-07 272.801 
-0.29 -0.79 -0.293778 0.373156 0.00976107 0.00972086 1.23193e-05 0.00974031 1.715e-07 272.734 
-0.33 -0.77 -0.313066 0.330405 0.00977037 0.00972389 1.68537e-05 0.00974687 1.71528e-07 272.873 
-0.27 -0.79 -0.387952 0.24014 0.00976421 0.0097145 1.13965e-05 0.0097419 1.71447e-07 272.863 
-0.31 -0.77 -0.304079 0.131211 0.00976566 0.00971608 1.15578e-05 0.00974228 1.71508e-07 272.776 
-0.29 -0.77 -0.30264 0.340064 0.00975934 0.00971886 9.88016e-06 0.0097405 1.71539e-07 272.677 
-0.27 -0.77 -0.308072 0.220925 0.00975781 0.00971236 8.31993e-06 0.00973829 1.71391e-07 272.851 
-0.31 -0.75 -0.181451 0.363954 0.00976827 0.00972013 1.24452e-05 0.0097495 1.71635e-07 272.776 
-0.29 -0.75 -0.461032 0.314523 0.00976807 0.00972157 1.34827e-05 0.00974972 1.71615e-07 272.814 
-0.27 -0.75 -0.510181 0.468881 0.00976659 0.009709 1.84881e-05 0.0097359 1.71353e-07 272.844 
-0.49 -0.83 0.00913997 0.240387 0.00975525 0.00971509 -5.58956e-07 0.00973545 1.71306e-07 272.906 
-0.47 -0.83 -0.121055 0.211882 0.0097569 0.00971776 2.21924e-06 0.00973857 1.71554e-07 272.598 
-0.45 -0.83 -0.143697 0.257347 0.00975693 0.00972247 -7.41436e-07 0.00974223 1.71423e-07 272.91 
-0.49 -0.81 -0.0529936 0.286327 0.00976681 0.00972018 1.00759e-06 0.00974306 1.71492e-07 272.824 
-0.43 -0.83 -0.135433 0.235182 0.00975617 0.00972187 4.4557e-06 0.00973987 1.71414e-07 272.858 
-0.47 -0.81 -0.125246 0.258276 0.00976382 0.00971648 -6.33365e-07 0.0097443 1.71526e-07 272.804 
-0.45 -0.81 -0.0727642 0.233353 0.00976733 0.00972388 2.0832e-06 0.00974534 1.71501e-07 272.872 
-0.49 -0.79 -0.0338272 0.467845 0.00975941 0.00972123 3.25276e-06 0.00973898 1.71393e-07 272.866 
-0.43 -0.81 -0.0346404 0.264667 0.00976218 0.00971239 5.109e-06 0.00973985 1.71575e-07 272.601 
-0.47 -0.79 -0.0154809 0.153613 0.00975782 0.00971899 -5.10935e-06 0.00974038 1.71419e-07 272.865 
-0.41 -0.81 -0.205029 0.166745 0.00976466 0.00972665 1.00109e-05 0.00975095 1.71576e-07 272.911 
-0.45 -0.79 -0.0616401 0.248502 0.00975776 0.00971594 3.25947e-06 0.00973559 1.71427e-07 272.717 
-0.49 -0.77 0.0799658 0.366823 0.00975845 0.00972354 5.67817e-06 0.009743 1.71383e-07 272.995 
-0.39 -0.81 -0.283154 0.21722 0.0097588 0.00971499 1.34077e-05 0.00974318 1.71555e-07 272.727 
-0.43 -0.79 -0.302712 0.34729 0.00976556 0.00971153 4.55699e-06 0.00973705 1.71501e-07 272.64 
-0.47 -0.77 0.0460607 0.297599 0.0097572 0.00972547 3.1103e-06 0.00974327 1.71445e-07 272.904 
-0.37 -0.81 -0.063173 0.113764 0.00975726 0.0097192 1.08789e-05 0.009739 1.71539e-07 272.635 
-0.41 -0.79 -0.268264 0.272616 0.00976772 0.00972424 8.50705e-06 0.00974984 1.71658e-07 272.75 
-0.45 -0.77 -0.21357 0.440332 0.00975616 0.00971152 -4.39922e-06 0.00973367 1.71415e-07 272.683 
-0.35 -0.81 -0.0312212 0.195754 0.00975248 0.00971412 6.35998e-06 0.0097376 1.71425e-07 272.778 
-0.39 -0.79 -0.199393 0.145578 0.00976496 0.0097122 8.70379e-06 0.00973953 1.71545e-07 272.64 
-0.43 -0.77 -0.19543 0.398293 0.00975575 0.0097098 1.95083e-06 0.00973317 1.7142e-07 272.66 
-0.37 -0.79 -0.26774 0.109309 0.00977377 0.00971939 1.19313e-05 0.00974388 1.71558e-07 272.741 
-0.41 -0.77 -0.194316 0.135634 0.00975637 0.00971277 9.37783e-06 0.00973441 1.7135e-07 272.807 
-0.35 -0.79 -0.223699 0.166978 0.00977469 0.00971748 1.33465e-05 0.00974703 1.71585e-07 272.786 
-0.39 -0.77 -0.111799 0.140176 0.00975853 0.00972069 1.14794e-05 0.00974522 1.71591e-07 272.726 
-0.43 -0.75 0.058896 0.205173 0.00976707 0.00970722 -1.31932e-06 0.00974082 1.7146e-07 272.812 
-0.33 -0.79 -0.254823 0.298921 0.00976408 0.00971469 5.61653e-06 0.00973986 1.71432e-07 272.829 
-0.37 -0.77 -0.133758 0.213314 0.00975963 0.00971625 3.1922e-06 0.00973834 1.71454e-07 272.752 
-0.41 -0.75 -0.0317495 0.333625 0.00976994 0.00970508 6.86092e-06 0.00974428 1.71594e-07 272.695 
-0.35 -0.77 -0.339226 0.261373 0.00976873 0.00971441 8.40728e-06 0.00974117 1.71438e-07 272.857 
-0.39 -0.75 -0.214606 0.189007 0.00977408 0.00972402 7.83926e-06 0.00975098 1.71693e-07 272.725 
-0.49 -0.75 -0.0410622 0.275679 0.00976723 0.00972798 5.48134e-06 0.0097516 1.71509e-07 273.036 
-0.47 -0.75 -0.0813502 0.497918 0.00976481 0.00973021 5.34038e-06 0.00974527 1.7143e-07 272.984 
-0.45 -0.75 -0.0939448 0.522579 0.0097642 0.00971107 -1.15045e-08 0.00973428 1.71444e-07 272.654 
-0.49 -0.73 -0.111917 0.461829 0.00976982 0.00972096 6.27344e-06 0.00974731 1.71462e-07 272.99 
-0.47 -0.73 -0.240543 0.471994 0.00977468 0.00973937 2.62061e-06 0.00975467 1.71466e-07 273.19 
-0.45 -0.73 -0.141217 0.267592 0.00977457 0.00971569 -3.99771e-06 0.00974205 1.71418e-07 272.914 
-0.49 -0.71 -0.0342769 0.623733 0.00977475 0.00972049 -1.42313e-06 0.00974721 1.71557e-07 272.837 
-0.43 -0.73 -0.0948205 0.373255 0.0097647 0.00970255 3.73271e-06 0.00973642 1.71394e-07 272.794 
-0.47 -0.71 -0.0715311 0.490923 0.009776 0.00973713 1.41414e-06 0.0097562 1.71505e-07 273.17 
-0.37 -0.75 -0.208814 0.156929 0.00976774 0.00971812 9.91881e-06 0.00974034 1.71544e-07 272.665 
-0.41 -0.73 -0.182538 0.347989 0.0097658 0.0097007 3.34482e-07 0.00973691 1.7155e-07 272.559 
-0.45 -0.71 -0.00522429 0.213562 0.00976616 0.00971415 8.59011e-06 0.00974015 1.71303e-07 273.043 
-0.49 -0.69 0.0592343 0.59151 0.00976791 0.00971668 -6.92215e-06 0.00974495 1.71463e-07 272.922 
-0.35 -0.75 -0.0511919 0.26793 0.00975975 0.00970984 8.33871e-06 0.00973527 1.71385e-07 272.775 
-0.39 -0.73 -0.186636 0.215432 0.00977126 0.00971551 1.11471e-05 0.0097433 1.71512e-07 272.799 
-0.43 -0.71 -0.198117 0.365718 0.00976536 0.00970705 3.53003e-06 0.00973898 1.71545e-07 272.625 
-0.47 -0.69 0.157612 0.439054 0.00976949 0.00972595 4.99846e-06 0.00974956 1.7142e-07 273.12 
-0.37 -0.73 -0.300189 0.201064 0.00977338 0.00972372 1.10385e-05 0.00974694 1.71573e-07 272.803 
-0.41 -0.71 -0.12523 0.446255 0.00976825 0.0096955 4.66799e-09 0.00973511 1.71642e-07 272.362 
-0.45 -0.69 -0.0580706 0.396306 0.00977742 0.00971335 8.47563e-06 0.00974833 1.71513e-07 272.938 
-0.35 -0.73 -0.536178 0.379602 0.00977223 0.00971046 9.82644e-06 0.00974516 1.71576e-07 272.748 
-0.39 -0.71 -0.18621 0.227416 0.00976852 0.00971729 1.05593e-06 0.00974088 1.71532e-07 272.699 
-0.43 -0.69 -0.111438 0.411964 0.00977866 0.0097161 7.43639e-06 0.00975101 1.71731e-07 272.666 
-0.33 -0.73 -0.346156 0.176171 0.0097716 0.00970744 1.40031e-05 0.00974027 1.71578e-07 272.609 
-0.37 -0.71 -0.128467 0.241592 0.00977115 0.00971655 1.33159e-05 0.00974634 1.71581e-07 272.774 
-0.41 -0.69 -0.106096 0.330919 0.00976984 0.00970182 8.77934e-07 0.00973643 1.71582e-07 272.495 
-0.35 -0.71 -0.260021 0.492003 0.00977102 0.00970728 9.94612e-06 0.00974648 1.71567e-07 272.8 
-0.39 -0.69 -0.107759 0.373643 0.00976237 0.00970453 5.20995e-06 0.00973448 1.71398e-07 272.733 
-0.37 -0.69 -0.320049 0.331492 0.00976229 0.00971383 1.02475e-05 0.00974235 1.71531e-07 272.742 
-0.35 -0.69 -0.260967 0.528528 0.0097631 0.00970501 1.20391e-05 0.00973481 1.7139e-07 272.754 
-0.35 -0.67 -0.247913 0.445905 0.0097715 0.0097148 1.10185e-05 0.00974444 1.71506e-07 272.841 
-0.33 -0.67 -0.379912 0.596217 0.00975722 0.00970326 8.39323e-06 0.00973896 1.71482e-07 272.725 
-0.33 -0.75 -0.105433 0.274751 0.00976086 0.00971537 1.08533e-05 0.00973784 1.71421e-07 272.79 
-0.31 -0.73 -0.411726 0.485583 0.00976815 0.00972434 1.13394e-05 0.00975029 1.7159e-07 272.871 
-0.29 -0.73 -0.352848 0.473953 0.00977205 0.00971383 1.42489e-05 0.00975009 1.71522e-07 272.973 
-0.33 -0.71 -0.528473 0.162174 0.00976817 0.00971161 1.43313e-05 0.00974197 1.715e-07 272.781 
-0.27 -0.73 -0.49698 0.564648 0.00976605 0.00971658 1.894e-05 0.00974577 1.71456e-07 272.956 
-0.31 -0.71 -0.385062 0.480466 0.0097662 0.00972398 1.51548e-05 0.00974831 1.71551e-07 272.877 
-0.29 -0.71 -0.475444 0.466592 0.00975891 0.00970737 1.73e-05 0.00973939 1.71306e-07 273.017 
-0.33 -0.69 -0.275031 0.32036 0.00977464 0.00971219 6.85036e-06 0.00974659 1.71645e-07 272.679 
-0.27 -0.71 -0.383521 0.468337 0.00976593 0.00971437 1.2874e-05 0.00974211 1.71342e-07 273.035 
-0.31 -0.69 -0.559178 0.475267 0.00977872 0.00971682 1.64093e-05 0.00975037 1.71575e-07 272.896 
-0.29 -0.69 -0.543575 0.565184 0.00977796 0.00971339 1.9449e-05 0.00975063 1.71523e-07 272.986 
-0.27 -0.69 -0.578693 0.374851 0.00977401 0.00971864 1.34253e-05 0.00974628 1.71383e-07 273.087 
-0.31 -0.67 -0.421482 0.580364 0.009756 0.00971289 1.27759e-05 0.00973858 1.71448e-07 272.768 
-0.29 -0.67 -0.437827 0.470779 0.0097632 0.00971376 1.65153e-05 0.0097422 1.71312e-07 273.086 
-0.41 -0.83 -0.1939 0.0597569 0.00975764 0.0097243 9.79609e-06 0.00974171 1.71544e-07 272.703 
-0.39 -0.83 -0.179364 0.282103 0.00975575 0.00971769 5.6843e-06 0.00973557 1.71458e-07 272.667 
-0.37 -0.83 -0.2159 0.213317 0.00975206 0.00971832 5.91438e-06 0.00973612 1.71298e-07 272.938 
-0.35 -0.83 -0.320166 0.0862427 0.00975763 0.00971489 1.59395e-05 0.00973624 1.7138e-07 272.811 
-0.33 -0.83 -0.213472 0.33546 0.00975756 0.00972419 1.42411e-05 0.00973871 1.71276e-07 273.046 
-0.31 -0.83 -0.134339 -0.0975644 0.00975221 0.00971456 1.90255e-05 0.00974107 1.71449e-07 272.836 
-0.29 -0.83 -0.246361 0.202269 0.00975866 0.00971911 1.70454e-05 0.00974543 1.71343e-07 273.128 
-0.27 -0.83 -0.298115 0.290465 0.00976082 0.00971789 7.81487e-06 0.00974637 1.71403e-07 273.059 
-0.27 -0.67 -0.465196 0.494325 0.00976241 0.00972083 1.83125e-05 0.00974382 1.71388e-07 273.01 
-0.25 -0.67 -0.544475 0.416766 0.00976883 0.00971708 1.16614e-05 0.00974948 1.71396e-07 273.157 
-0.25 -0.81 -0.270959 0.351894 0.00976464 0.00971641 7.24366e-06 0.0097448 1.7142e-07 272.988 
-0.25 -0.79 -0.272648 0.227183 0.00977011 0.00972335 2.02907e-05 0.00974492 1.71438e-07 272.961 
-0.35 -0.55 -0.209516 0.783262 0.00978374 0.00970932 6.5406e-06 0.00974531 1.71456e-07 272.943 
-0.39 -0.53 -0.251737 0.866544 0.00977652 0.00969285 4.72052e-06 0.00973739 1.7145e-07 272.731 
-0.37 -0.57 -0.254561 0.770973 0.00976971 0.0097035 1.09506e-05 0.00974355 1.71317e-07 273.116 
-0.41 -0.55 -0.23689 0.916498 0.00976278 0.00969857 7.07955e-06 0.00973736 1.71416e-07 272.785 
-0.45 -0.53 -0.0937937 0.601076 0.00976215 0.00969613 -3.3338e-06 0.00972883 1.71307e-07 272.72 
-0.35 -0.57 -0.237387 0.765284 0.00977643 0.00970259 1.74985e-05 0.00974369 1.71462e-07 272.889 
-0.39 -0.55 -0.32323 0.706486 0.00976469 0.00968967 4.18427e-06 0.0097357 1.71355e-07 272.835 
-0.43 -0.53 -0.206259 0.891789 0.0097675 0.009691 3.09014e-06 0.00973151 1.71407e-07 272.635 
-0.47 -0.51 -0.0446444 0.786917 0.00977245 0.00970202 -2.62891e-06 0.009741 1.71534e-07 272.699 
-0.37 -0.55 -0.246342 0.741275 0.00976853 0.00969539 9.05611e-06 0.00973858 1.71274e-07 273.045 
-0.41 -0.53 -0.252541 0.748763 0.00977318 0.00969891 4.77013e-06 0.00973632 1.71454e-07 272.695 
-0.45 -0.51 -0.263738 0.720344 0.00976917 0.00969224 2.87401e-06 0.00973556 1.71453e-07 272.676 
-0.37 -0.53 -0.309526 0.716194 0.0097794 0.00969792 -1.64104e-06 0.00974077 1.71511e-07 272.729 
-0.41 -0.51 -0.271773 0.806261 0.00976368 0.00969883 -1.69302e-06 0.00973404 1.71376e-07 272.755 
-0.35 -0.53 -0.376064 0.777939 0.00977538 0.00970361 8.34168e-06 0.00974152 1.71483e-07 272.795 
-0.39 -0.51 -0.379105 0.864433 0.00977153 0.00969383 -1.16316e-06 0.00973402 1.71435e-07 272.661 
-0.37 -0.51 -0.370667 0.734128 0.00977097 0.0096923 3.57165e-06 0.00973172 1.71309e-07 272.797 
-0.35 -0.51 -0.419771 0.838642 0.00976821 0.00969875 1.01949e-05 0.00972757 1.71335e-07 272.64 
-0.49 -0.65 -0.052452 0.496329 0.0097731 0.00972223 7.86002e-06 0.00974988 1.71504e-07 272.995 
-0.47 -0.65 -0.0810642 0.412881 0.00976979 0.00971419 2.19674e-07 0.00974724 1.71463e-07 272.987 
-0.45 -0.65 -0.0375181 0.62727 0.00976562 0.00971687 6.88319e-06 0.00974618 1.71624e-07 272.702 
-0.49 -0.63 0.0442839 0.446587 0.00976927 0.00972518 3.40223e-06 0.00975284 1.7175e-07 272.687 
-0.43 -0.65 0.000455544 0.578383 0.0097576 0.00969905 5.23256e-06 0.00973536 1.71427e-07 272.711 
-0.47 -0.63 0.0425126 0.53236 0.00976498 0.0097084 2.52651e-06 0.0097429 1.71583e-07 272.675 
-0.41 -0.65 -9.97888e-05 0.540361 0.00976282 0.00970568 9.68538e-06 0.00973727 1.71455e-07 272.72 
-0.45 -0.63 -0.0543783 0.605093 0.00977152 0.00971682 8.35044e-06 0.00974867 1.7163e-07 272.761 
-0.49 -0.61 -0.0367619 0.530424 0.00975662 0.00971118 -4.4322e-06 0.00974017 1.71394e-07 272.899 
-0.39 -0.65 -0.114848 0.439184 0.00975983 0.00971478 7.67985e-06 0.00973818 1.7131e-07 272.976 
-0.43 -0.63 -0.106705 0.599914 0.00977573 0.00970661 8.02278e-06 0.00974275 1.7132e-07 273.088 
-0.47 -0.61 -0.129528 0.493782 0.00976389 0.00971297 7.74218e-06 0.00974337 1.7147e-07 272.867 
-0.37 -0.65 -0.242235 0.457363 0.00975839 0.00970025 3.07678e-06 0.00972688 1.71123e-07 272.958 
-0.41 -0.63 -0.131396 0.603436 0.00977041 0.00969514 2.64151e-06 0.00973533 1.71354e-07 272.826 
-0.45 -0.61 -0.0859316 0.673358 0.0097634 0.00970876 -2.52278e-06 0.00973873 1.7138e-07 272.881 
-0.49 -0.59 -0.00220404 0.503967 0.00976947 0.00970536 -6.18952e-06 0.00974606 1.71619e-07 272.706 
-0.35 -0.65 -0.320226 0.46278 0.00976594 0.00971154 1.25581e-05 0.00973722 1.71397e-07 272.811 
-0.39 -0.63 -0.108569 0.510688 0.00977811 0.00971873 1.29188e-05 0.00974848 1.71539e-07 272.901 
-0.43 -0.61 -0.00859267 0.658195 0.00977178 0.00970915 4.44267e-06 0.00974214 1.71372e-07 272.989 
-0.47 -0.59 0.0788272 0.543404 0.00977669 0.00971144 -5.66601e-06 0.00974604 1.71477e-07 272.93 
-0.37 -0.63 -0.205196 0.495101 0.00976555 0.00970026 1.20442e-05 0.00973187 1.71238e-07 272.914 
-0.41 -0.61 -0.130781 0.570313 0.00977176 0.00969858 1.04969e-05 0.00973555 1.71276e-07 272.957 
-0.45 -0.59 0.0689301 0.532334 0.00977773 0.00971102 3.13599e-06 0.00974959 1.71488e-07 273.013 
-0.49 -0.57 -0.0529402 0.477404 0.00978088 0.00971137 -3.64971e-06 0.00975 1.71549e-07 272.926 
-0.35 -0.63 -0.3675 0.577 0.00975906 0.00970092 1.26373e-05 0.00973051 1.71279e-07 272.811 
-0.39 -0.61 -0.142642 0.47699 0.00976938 0.00970597 8.30276e-06 0.00973823 1.71338e-07 272.933 
-0.43 -0.59 -0.0374721 0.772389 0.00976893 0.00969898 5.88585e-06 0.0097429 1.7149e-07 272.822 
-0.47 -0.57 -0.117276 0.485057 0.00976923 0.00970498 -5.07576e-06 0.00973494 1.71325e-07 272.862 
-0.37 -0.61 -0.190366 0.691351 0.00977376 0.00970547 1.4592e-05 0.00974019 1.71496e-07 272.737 
-0.41 -0.59 -0.0768117 0.626977 0.00977501 0.00970089 5.31075e-06 0.00973791 1.71382e-07 272.854 
-0.45 -0.57 -0.128813 0.67021 0.00976805 0.00970123 2.58629e-06 0.00973705 1.71354e-07 272.874 
-0.49 -0.55 -0.0687034 0.623916 0.0097538 0.00970631 -5.54853e-06 0.0097328 1.71291e-07 272.856 
-0.35 -0.61 -0.207202 0.623146 0.0097712 0.00970061 1.24412e-05 0.00973288 1.71346e-07 272.771 
-0.39 -0.59 -0.129771 0.610379 0.00977158 0.00969289 9.88742e-06 0.00973596 1.71328e-07 272.885 
-0.43 -0.57 -0.00474165 0.758232 0.00977264 0.00969803 6.44843e-06 0.00974048 1.71371e-07 272.945 
-0.47 -0.55 -0.186791 0.637262 0.00976448 0.00969602 1.23251e-06 0.00973531 1.7142e-07 272.72 
-0.33 -0.61 -0.399813 0.60479 0.0097653 0.00970084 1.72992e-05 0.00973528 1.71266e-07 272.966 
-0.37 -0.59 -0.214116 0.673041 0.00977638 0.00971317 1.89471e-05 0.00974755 1.71538e-07 272.877 
-0.41 -0.57 -0.0760903 0.677421 0.00976607 0.00969878 1.12731e-05 0.00973727 1.71263e-07 273.026 
-0.45 -0.55 -0.205458 0.551793 0.00976311 0.00970107 3.19956e-06 0.00973163 1.71266e-07 272.863 
-0.49 -0.53 0.0290407 0.689462 0.00976282 0.00969712 -4.05403e-06 0.00973639 1.71306e-07 272.933 
-0.35 -0.59 -0.351053 0.732426 0.00976829 0.00969571 1.53585e-05 0.00972873 1.71341e-07 272.663 
-0.39 -0.57 -0.228439 0.752673 0.00976828 0.00968736 9.72985e-06 0.00973352 1.71181e-07 273.052 
-0.43 -0.55 -0.209442 0.630161 0.00976111 0.00969263 8.59333e-06 0.0097323 1.71361e-07 272.73 
-0.47 -0.53 -0.0211792 0.615592 0.00975641 0.00969752 7.96175e-07 0.00972659 1.71209e-07 272.813 
-0.29 -0.57 -0.585564 0.705703 0.00977501 0.00971459 1.87889e-05 0.00974761 1.71461e-07 273 
-0.33 -0.55 -0.412079 0.890909 0.00978423 0.00971002 9.30894e-06 0.00974926 1.71482e-07 273.013 
-0.29 -0.61 -0.375603 0.637648 0.00976984 0.00971898 1.05345e-05 0.0097446 1.71612e-07 272.675 
-0.33 -0.59 -0.329145 0.818663 0.0097674 0.00970486 1.43851e-05 0.00973808 1.71327e-07 272.946 
-0.27 -0.61 -0.444888 0.567931 0.00977882 0.00971353 1.45855e-05 0.00974633 1.71585e-07 272.768 
-0.31 -0.59 -0.429917 0.64595 0.00976946 0.00971218 1.06224e-05 0.00973981 1.71407e-07 272.867 
-0.29 -0.59 -0.384095 0.548002 0.00977606 0.00972107 1.05499e-05 0.00974655 1.71567e-07 272.802 
-0.33 -0.57 -0.365633 0.758372 0.00978074 0.00971392 9.40976e-06 0.00974785 1.71383e-07 273.132 
-0.27 -0.59 -0.463234 0.690074 0.00976933 0.00970698 1.38111e-05 0.00973939 1.7149e-07 272.725 
-0.31 -0.57 -0.403693 0.71815 0.00978089 0.00970835 6.50317e-06 0.00974463 1.71498e-07 272.858 
-0.27 -0.57 -0.636997 0.721174 0.00976722 0.00970663 2.41517e-05 0.0097462 1.71526e-07 272.858 
-0.31 -0.55 -0.409878 0.934346 0.00977526 0.00971033 1.81351e-05 0.00974466 1.71436e-07 272.958 
-0.29 -0.55 -0.55873 0.696282 0.00976346 0.00969598 2.16491e-05 0.00973164 1.71199e-07 272.97 
-0.33 -0.53 -0.304683 1.07738 0.00977381 0.00969807 1.38099e-05 0.0097377 1.71344e-07 272.908 
-0.27 -0.55 -0.428095 0.589944 0.00976703 0.00971281 2.11408e-05 0.00974186 1.71413e-07 272.916 
-0.31 -0.53 -0.418029 0.844959 0.00977227 0.00970527 2.34837e-05 0.00974195 1.71486e-07 272.803 
-0.29 -0.53 -0.305944 0.679499 0.00978247 0.00970132 1.90884e-05 0.00974643 1.71463e-07 272.965 
-0.33 -0.51 -0.269288 0.930292 0.00976504 0.0096906 1.58384e-05 0.00972919 1.71123e-07 273.023 
-0.27 -0.53 -0.483046 0.763747 0.00977952 0.00971128 2.26361e-05 0.00974297 1.71503e-07 272.804 
-0.31 -0.51 -0.269163 0.906687 0.00976993 0.00970518 1.71866e-05 0.00973328 1.71334e-07 272.801 
-0.29 -0.51 -0.462479 0.850273 0.00976336 0.00969971 2.26559e-05 0.00973771 1.71429e-07 272.773 
-0.27 -0.51 -0.560303 0.947941 0.00976033 0.00970307 2.75191e-05 0.0097365 1.71357e-07 272.855 
-0.33 -0.65 -0.340735 0.497329 0.00976637 0.00970601 1.81677e-05 0.00973647 1.71299e-07 272.946 
-0.31 -0.65 -0.232187 0.60537 0.00976443 0.00971416 1.33696e-05 0.00974126 1.71352e-07 272.996 
-0.29 -0.65 -0.378813 0.580877 0.00975822 0.00970488 1.33223e-05 0.00973336 1.71233e-07 272.963 
-0.33 -0.63 -0.335913 0.518909 0.00976356 0.00971014 9.98797e-06 0.0097397 1.7138e-07 272.907 
-0.27 -0.65 -0.460185 0.506991 0.00976772 0.00972512 1.24423e-05 0.00974663 1.71483e-07 272.937 
-0.31 -0.63 -0.506694 0.674951 0.00976199 0.00970672 1.7572e-05 0.00973839 1.71309e-07 272.984 
-0.25 -0.65 -0.575539 0.441589 0.00976319 0.00971462 1.37212e-05 0.00974067 1.71461e-07 272.807 
-0.29 -0.63 -0.530501 0.513842 0.00976907 0.00971854 1.31699e-05 0.009744 1.71505e-07 272.829 
-0.27 -0.63 -0.466456 0.588986 0.00975815 0.00971646 1.43304e-05 0.00973678 1.71457e-07 272.704 
-0.31 -0.61 -0.450116 0.633482 0.00977121 0.00971219 1.4298e-05 0.00974503 1.71551e-07 272.785 
-0.49 -0.67 0.0659157 0.509835 0.00976788 0.00971634 -5.31051e-06 0.00974221 1.71459e-07 272.853 
-0.47 -0.67 0.0562525 0.407843 0.00976668 0.00972042 2.38579e-07 0.00974419 1.71479e-07 272.876 
-0.45 -0.67 0.136308 0.558388 0.00976487 0.00971418 3.00622e-06 0.00974596 1.71522e-07 272.857 
-0.43 -0.67 -0.0808567 0.557577 0.00976978 0.00970838 4.72057e-06 0.00974337 1.7156e-07 272.724 