ITEM: TIMESTEP
1018000
ITEM: NUMBER OF CELLS
5000
ITEM: BOX BOUNDS ss ss pp
-0.5 0.5
-1 1
-0.5 0.5
ITEM: CELLS xc yc f_U[*] f_V[*] f_Tau[1] f_Tau[2] f_Tau[3] f_Press[*] f_Mrho[*] f_Ttra[*] 
-0.49 -0.99 -0.053743 0.132573 0.00976539 0.00973509 1.03248e-05 0.00975034 1.71569e-07 272.905 
-0.47 -0.99 -0.203144 0.0115574 0.00975142 0.0097207 7.74736e-06 0.00973976 1.71462e-07 272.779 
-0.45 -0.99 -0.272362 0.0131903 0.00975218 0.0097331 6.83962e-06 0.00974758 1.71498e-07 272.941 
-0.49 -0.97 -0.0692173 0.194873 0.00974668 0.00972518 1.20212e-05 0.00973503 1.71368e-07 272.795 
-0.43 -0.99 -0.277639 -0.0590466 0.00974279 0.00972594 5.85924e-06 0.00974094 1.71359e-07 272.976 
-0.47 -0.97 -0.107217 0.139537 0.00974563 0.00972138 1.55858e-05 0.00973871 1.714e-07 272.848 
-0.41 -0.99 -0.118942 -0.0876777 0.00973731 0.00972885 5.66186e-08 0.00973675 1.71311e-07 272.935 
-0.45 -0.97 -0.0807847 -0.0272326 0.00974587 0.00973648 8.1542e-06 0.00974612 1.71463e-07 272.956 
-0.49 -0.95 0.0639353 0.16329 0.00973339 0.00971179 4.1632e-06 0.00973014 1.71227e-07 272.884 
-0.39 -0.99 -0.13978 0.0973335 0.00974305 0.00973194 -4.22538e-07 0.00973799 1.71177e-07 273.184 
-0.43 -0.97 0.0287002 0.0693927 0.00975067 0.00972916 4.12585e-06 0.00974599 1.71418e-07 273.023 
-0.47 -0.95 0.138355 0.113879 0.009751 0.00972924 1.71163e-06 0.00973938 1.71383e-07 272.894 
-0.37 -0.99 -0.189709 -0.0513315 0.00974138 0.0097288 1.09354e-05 0.00973789 1.71301e-07 272.983 
-0.41 -0.97 -0.146189 -0.178973 0.00974565 0.00973108 4.65512e-06 0.0097408 1.71386e-07 272.929 
-0.45 -0.95 0.232473 -0.114295 0.00975849 0.00973993 7.94079e-06 0.00975584 1.71631e-07 272.96 
-0.49 -0.93 0.0151141 0.0925315 0.00976688 0.00972031 3.88521e-07 0.00974661 1.71454e-07 272.984 
-0.35 -0.99 -0.0794259 -0.0941368 0.00973207 0.00970857 7.0418e-06 0.00971771 1.71015e-07 272.873 
-0.39 -0.97 -0.0607859 0.0452475 0.00973911 0.00972574 6.68549e-06 0.00973803 1.7141e-07 272.813 
-0.43 -0.95 0.150958 0.0302155 0.00975855 0.00972718 9.12509e-06 0.0097488 1.71567e-07 272.865 
-0.47 -0.93 0.0444984 0.0267663 0.00975986 0.00972615 1.6647e-06 0.00974426 1.71489e-07 272.863 
-0.33 -0.99 -0.0353532 0.0512556 0.00973479 0.00972828 6.20745e-06 0.00972914 1.71248e-07 272.822 
-0.37 -0.97 0.0226835 -0.120294 0.00973744 0.00972801 5.61139e-06 0.00973943 1.71345e-07 272.956 
-0.41 -0.95 0.0576022 0.0976211 0.00975709 0.00973215 4.84841e-06 0.00974622 1.71536e-07 272.842 
-0.45 -0.93 -0.0468673 0.0475532 0.00975734 0.00973321 5.1076e-06 0.00974679 1.7154e-07 272.851 
-0.49 -0.91 0.0303569 0.176653 0.00977415 0.00972532 1.15739e-05 0.00975265 1.71472e-07 273.124 
-0.35 -0.97 -0.024996 -0.0558009 0.00973821 0.00971326 1.09363e-05 0.00973182 1.71203e-07 272.969 
-0.39 -0.95 -0.130881 -0.0919624 0.00975218 0.00972628 7.38949e-06 0.00973988 1.71507e-07 272.71 
-0.43 -0.93 -0.0907486 0.0607912 0.00975674 0.00972942 3.47637e-06 0.00973962 1.71426e-07 272.832 
-0.47 -0.91 -0.176895 0.0299839 0.00976466 0.00972628 7.18534e-06 0.00974435 1.71521e-07 272.814 
-0.33 -0.97 -0.130455 0.0223762 0.00974235 0.00972584 3.89532e-06 0.00973966 1.7144e-07 272.811 
-0.37 -0.95 -0.138 -0.0872181 0.0097547 0.0097205 1.23911e-05 0.00974276 1.71333e-07 273.068 
-0.41 -0.93 -0.0678808 0.110594 0.00975607 0.00972832 1.34483e-05 0.00973607 1.71311e-07 272.916 
-0.45 -0.91 -0.041006 0.0339796 0.00976394 0.0097275 6.23752e-06 0.00975134 1.71544e-07 272.972 
-0.49 -0.89 -0.0377495 0.133919 0.00976477 0.00972529 8.64429e-06 0.00974602 1.71413e-07 273.032 
-0.35 -0.95 -0.105643 -0.0310253 0.0097559 0.00972196 4.46821e-06 0.00974369 1.71423e-07 272.951 
-0.39 -0.93 0.0288332 -0.0704923 0.00975495 0.00972861 8.33936e-06 0.00974355 1.71618e-07 272.637 
-0.43 -0.91 -0.142623 0.0577448 0.00975795 0.00973319 9.68749e-06 0.00974248 1.71326e-07 273.072 
-0.47 -0.89 0.114357 0.124772 0.00976676 0.00973051 9.78911e-06 0.00974891 1.71598e-07 272.819 
-0.37 -0.93 -0.0418484 0.0196274 0.0097549 0.00972131 2.97973e-06 0.00974345 1.71405e-07 272.973 
-0.41 -0.91 -0.0589636 0.0134575 0.00976562 0.00972273 4.92882e-06 0.00974357 1.71414e-07 272.962 
-0.45 -0.89 -0.0810809 0.179579 0.00976096 0.0097235 5.56368e-06 0.00974469 1.71455e-07 272.928 
-0.49 -0.87 -0.0233317 0.15548 0.00974813 0.0097149 5.54862e-07 0.00973194 1.7132e-07 272.786 
-0.35 -0.93 -0.369439 0.0360228 0.00975518 0.00972257 9.10995e-06 0.00973906 1.71452e-07 272.775 
-0.39 -0.91 -0.0976492 -0.0391291 0.00976979 0.00973358 1.24847e-05 0.00975391 1.71744e-07 272.726 
-0.43 -0.89 -0.126231 0.0191927 0.00976741 0.00974071 6.06328e-06 0.00975423 1.7152e-07 273.092 
-0.47 -0.87 0.0623057 0.14117 0.00975466 0.00972937 8.00789e-06 0.00973859 1.71356e-07 272.915 
-0.37 -0.91 -0.195822 0.20882 0.009757 0.00972162 1.16298e-05 0.00973951 1.71607e-07 272.541 
-0.41 -0.89 -0.12871 -0.0165666 0.00975964 0.00971735 2.45248e-06 0.00974301 1.71495e-07 272.818 
-0.45 -0.87 -0.0868734 0.150642 0.00976398 0.00972371 8.67544e-06 0.00975053 1.71515e-07 272.996 
-0.49 -0.85 -0.0385189 0.150429 0.00975442 0.00971363 5.07856e-07 0.00973329 1.71249e-07 272.937 
-0.35 -0.91 -0.100864 0.161877 0.00974944 0.00972292 4.81004e-06 0.00973686 1.71436e-07 272.739 
-0.39 -0.89 -0.0704157 0.146374 0.00975463 0.00972058 1.26724e-05 0.00974601 1.71553e-07 272.808 
-0.43 -0.87 -0.0571215 0.153102 0.00975217 0.00974219 1.06871e-05 0.00975133 1.71589e-07 272.901 
-0.47 -0.85 -0.166147 0.246728 0.0097587 0.009725 9.4375e-07 0.00974581 1.71391e-07 273.061 
-0.33 -0.91 -0.153439 -0.0638948 0.0097513 0.00971656 1.2641e-05 0.00973732 1.71428e-07 272.765 
-0.37 -0.89 -0.202182 0.0791176 0.00976198 0.00973362 1.84777e-05 0.00975473 1.71653e-07 272.895 
-0.41 -0.87 -0.196054 -0.0222108 0.00975436 0.00971952 8.05582e-06 0.00973837 1.71485e-07 272.703 
-0.45 -0.85 -0.122046 0.162363 0.009759 0.00971965 7.51306e-06 0.00974453 1.71409e-07 272.996 
-0.35 -0.89 -0.237203 0.181787 0.00976522 0.00972076 1.06932e-05 0.00973968 1.71459e-07 272.782 
-0.39 -0.87 -0.28488 0.141876 0.00976152 0.00971465 6.48358e-06 0.00974342 1.71534e-07 272.766 
-0.43 -0.85 -0.213745 0.155177 0.00976902 0.00974305 7.7874e-06 0.00975149 1.71682e-07 272.757 
-0.37 -0.87 -0.325397 0.214418 0.00977073 0.00973192 8.42363e-06 0.00975244 1.71603e-07 272.909 
-0.41 -0.85 -0.151871 0.131165 0.00976906 0.00972232 9.65233e-06 0.00974906 1.71669e-07 272.71 
-0.35 -0.87 -0.297155 0.141599 0.00977107 0.00972377 1.17267e-05 0.00974557 1.71493e-07 272.892 
-0.39 -0.85 -0.281801 0.349645 0.00976903 0.00971765 -6.88061e-08 0.0097499 1.71586e-07 272.865 
-0.33 -0.87 -0.351886 0.108307 0.00976792 0.00972269 1.32527e-05 0.00974769 1.71532e-07 272.89 
-0.37 -0.85 -0.348363 0.0762693 0.00976818 0.00972386 7.28922e-06 0.0097464 1.71503e-07 272.9 
-0.35 -0.85 -0.283321 0.192769 0.0097655 0.00972058 1.37477e-05 0.0097437 1.71351e-07 273.066 
-0.33 -0.85 -0.421403 0.286742 0.00976554 0.00972328 1.43299e-05 0.00974169 1.71433e-07 272.879 
-0.31 -0.99 0.0417216 -0.0547388 0.00973146 0.00971305 1.37785e-05 0.00972092 1.71202e-07 272.665 
-0.29 -0.99 -0.0747808 0.0814084 0.00973223 0.00971693 1.06868e-05 0.00972894 1.71209e-07 272.878 
-0.27 -0.99 -0.158923 0.0151725 0.00974326 0.00972805 7.01095e-06 0.00973351 1.7113e-07 273.132 
-0.31 -0.97 -0.384075 -0.0406891 0.00974788 0.00971712 5.49481e-06 0.00973446 1.71375e-07 272.769 
-0.29 -0.97 -0.388366 0.230739 0.00975542 0.00971775 1.07006e-05 0.0097465 1.71544e-07 272.837 
-0.33 -0.95 -0.0779752 0.138323 0.00974965 0.00972094 9.82382e-06 0.00973764 1.71345e-07 272.906 
-0.27 -0.97 -0.288919 -0.0692343 0.00974578 0.00972277 1.05946e-05 0.00973921 1.71392e-07 272.874 
-0.31 -0.95 -0.235707 0.252083 0.00974713 0.00971894 7.89246e-06 0.00973262 1.71359e-07 272.743 
-0.29 -0.95 -0.222854 0.0333904 0.00974342 0.00970753 7.12945e-06 0.00972557 1.71291e-07 272.654 
-0.33 -0.93 -0.349258 0.147668 0.00975917 0.00971652 3.82556e-06 0.00973648 1.71307e-07 272.933 
-0.27 -0.95 -0.304794 -0.0222845 0.00975001 0.00972971 7.51091e-06 0.00974264 1.71394e-07 272.967 
-0.31 -0.93 -0.0909326 0.110552 0.0097601 0.00971929 1.08362e-05 0.0097411 1.71603e-07 272.592 
-0.29 -0.93 -0.147411 0.159457 0.00975903 0.00970961 9.32913e-06 0.0097362 1.7145e-07 272.698 
-0.27 -0.93 -0.172299 0.0839529 0.00975599 0.00972416 1.02097e-05 0.00974267 1.71521e-07 272.766 
-0.31 -0.91 -0.216313 0.170164 0.00975235 0.00971672 9.62561e-06 0.00973904 1.7147e-07 272.747 
-0.29 -0.91 -0.20824 0.0558795 0.00975059 0.00971123 3.90647e-06 0.00973043 1.71373e-07 272.659 
-0.33 -0.89 -0.259968 0.00445587 0.0097592 0.0097219 8.69807e-06 0.00974255 1.71431e-07 272.906 
-0.27 -0.91 -0.0608879 0.130894 0.00975527 0.00972052 7.21439e-06 0.00973482 1.71465e-07 272.636 
-0.31 -0.89 -0.232342 0.164476 0.00976245 0.00971813 4.27011e-06 0.00974883 1.71567e-07 272.865 
-0.29 -0.89 -0.218725 0.019601 0.00975894 0.0097102 8.83503e-06 0.00974041 1.71324e-07 273.017 
-0.27 -0.89 -0.345386 0.242175 0.00975336 0.00971716 1.0067e-05 0.00974315 1.71443e-07 272.904 
-0.31 -0.87 -0.416528 0.207826 0.00975817 0.00971823 8.40663e-06 0.00973799 1.71442e-07 272.76 
-0.29 -0.87 -0.423528 0.0159721 0.00975508 0.00970753 9.30619e-06 0.00973742 1.71318e-07 272.942 
-0.27 -0.87 -0.392232 0.236173 0.00975481 0.00971857 1.46136e-05 0.00974119 1.71395e-07 272.925 
-0.31 -0.85 -0.40021 -0.025144 0.00976552 0.0097224 1.85784e-05 0.00974624 1.71515e-07 272.876 
-0.29 -0.85 -0.235273 0.151 0.0097556 0.00970576 1.387e-05 0.00974052 1.71382e-07 272.928 
-0.27 -0.85 -0.283717 0.133176 0.00975407 0.00971685 1.02614e-05 0.00973865 1.71191e-07 273.179 
-0.25 -0.99 -0.261945 0.099604 0.00974626 0.00973273 1.27334e-05 0.00974189 1.71359e-07 273.002 
-0.25 -0.97 -0.168485 0.121608 0.00974771 0.00972893 7.1401e-06 0.0097404 1.71489e-07 272.753 
-0.25 -0.95 -0.419546 0.105906 0.00974599 0.00972939 1.06205e-05 0.00973983 1.71379e-07 272.913 
-0.25 -0.93 -0.148689 0.120654 0.0097564 0.00973227 1.40336e-05 0.00974244 1.71536e-07 272.736 
-0.25 -0.91 -0.232665 0.152409 0.00975658 0.00972941 1.11954e-05 0.00974542 1.7158e-07 272.75 
-0.25 -0.89 -0.320861 0.208985 0.00975214 0.00972499 1.42524e-05 0.00973961 1.71373e-07 272.916 
-0.25 -0.87 -0.439517 0.222119 0.00974951 0.00971823 1.5429e-05 0.00973812 1.71285e-07 273.014 
-0.25 -0.85 -0.2431 0.337212 0.0097615 0.00971961 1.07149e-05 0.00974633 1.71391e-07 273.077 
-0.25 -0.83 -0.428966 0.252138 0.00975891 0.00971428 7.56208e-06 0.00974408 1.71351e-07 273.076 
-0.33 -0.81 -0.0721326 0.211613 0.00976254 0.00971106 1.33673e-05 0.00974011 1.71439e-07 272.826 
-0.31 -0.81 -0.173678 0.133463 0.00977797 0.00972373 1.42756e-05 0.00975446 1.71492e-07 273.143 
-0.29 -0.81 -0.245284 0.117934 0.00978037 0.00972506 1.06376e-05 0.00975599 1.71515e-07 273.149 
-0.27 -0.81 -0.319699 0.328572 0.00977428 0.00971812 1.21485e-05 0.00975229 1.71442e-07 273.162 
-0.31 -0.79 -0.274289 0.169291 0.00975653 0.00971845 7.74387e-06 0.00973852 1.714e-07 272.843 
-0.29 -0.79 -0.393705 0.337594 0.00976075 0.00972046 1.12809e-05 0.0097392 1.7148e-07 272.735 
-0.33 -0.77 -0.319633 0.340951 0.00976905 0.00972438 1.69584e-05 0.00974556 1.71464e-07 272.939 
-0.27 -0.79 -0.442747 0.234492 0.00976408 0.00971495 1.60883e-05 0.00974179 1.71428e-07 272.889 
-0.31 -0.77 -0.302188 0.204043 0.00976401 0.00971583 1.22856e-05 0.00974287 1.71491e-07 272.819 
-0.29 -0.77 -0.291265 0.346935 0.00975485 0.00971703 1.13003e-05 0.00973891 1.71527e-07 272.651 
-0.27 -0.77 -0.388198 0.253475 0.00975446 0.00971023 1.08311e-05 0.00973767 1.71376e-07 272.857 
-0.31 -0.75 -0.157978 0.394338 0.00976046 0.00971922 1.20301e-05 0.00974758 1.71566e-07 272.833 
-0.29 -0.75 -0.49281 0.368524 0.00976086 0.0097184 1.58216e-05 0.00974694 1.71559e-07 272.825 
-0.27 -0.75 -0.436588 0.463467 0.00976158 0.00970894 1.69439e-05 0.00973557 1.71319e-07 272.889 
-0.49 -0.83 -0.0800088 0.309157 0.00975205 0.00971672 -2.38501e-06 0.00973582 1.71358e-07 272.834 
-0.47 -0.83 -0.168889 0.195873 0.00975287 0.00972102 1.61715e-06 0.00973826 1.71588e-07 272.536 
-0.45 -0.83 -0.177935 0.218762 0.00975449 0.00972072 -3.80638e-07 0.00973974 1.71474e-07 272.759 
-0.49 -0.81 -0.0222559 0.383191 0.00976087 0.00971937 -7.99584e-07 0.00974149 1.71473e-07 272.809 
-0.43 -0.83 -0.125047 0.188238 0.00975642 0.00972873 4.47917e-06 0.00974328 1.71529e-07 272.771 
-0.47 -0.81 -0.100189 0.244598 0.00976053 0.00972057 -1.43877e-06 0.00974417 1.71491e-07 272.856 
-0.45 -0.81 -0.0799178 0.201351 0.00976575 0.00972319 2.94165e-07 0.0097434 1.71482e-07 272.849 
-0.49 -0.79 -0.0115611 0.529093 0.00975996 0.0097217 2.51174e-06 0.00974265 1.71444e-07 272.888 
-0.43 -0.81 -0.134643 0.261933 0.00976251 0.0097176 1.82878e-06 0.00974285 1.71626e-07 272.605 
-0.47 -0.79 -0.0233438 0.156969 0.0097554 0.00972067 -6.97144e-06 0.00974252 1.71413e-07 272.935 
-0.41 -0.81 -0.279213 0.23222 0.00976351 0.00973147 1.22141e-05 0.0097522 1.71599e-07 272.909 
-0.45 -0.79 -0.0524279 0.262483 0.00975581 0.00971785 1.40502e-06 0.00973442 1.71425e-07 272.689 
-0.49 -0.77 0.0683649 0.404909 0.00976025 0.00972463 6.21966e-06 0.00974697 1.71437e-07 273.02 
-0.39 -0.81 -0.300469 0.233761 0.00975382 0.0097173 1.60063e-05 0.00974313 1.71587e-07 272.674 
-0.43 -0.79 -0.327199 0.427833 0.0097631 0.00971576 2.24886e-06 0.00973852 1.71515e-07 272.66 
-0.47 -0.77 0.0295394 0.326154 0.00975669 0.00972781 2.29394e-06 0.00974568 1.71389e-07 273.061 
-0.37 -0.81 -0.0540381 0.11699 0.00975194 0.00971512 1.0044e-05 0.00973324 1.71493e-07 272.546 
-0.41 -0.79 -0.362845 0.326963 0.00976541 0.00972377 7.98034e-06 0.00974857 1.71672e-07 272.691 
-0.45 -0.77 -0.279676 0.474674 0.00975414 0.00971304 -5.60891e-06 0.00973581 1.71394e-07 272.776 
-0.35 -0.81 -0.0216078 0.215805 0.0097472 0.00971363 5.24016e-06 0.00973775 1.71392e-07 272.834 
-0.39 -0.79 -0.250791 0.0782508 0.00976819 0.00971687 1.01426e-05 0.00974402 1.71671e-07 272.565 
-0.43 -0.77 -0.232254 0.455153 0.00975152 0.00971342 7.63744e-07 0.00973431 1.71428e-07 272.68 
-0.37 -0.79 -0.253494 0.101956 0.00977808 0.00971677 1.01476e-05 0.00974818 1.71599e-07 272.797 
-0.41 -0.77 -0.228355 0.151236 0.00975289 0.00971274 7.57278e-06 0.00973471 1.71404e-07 272.729 
-0.35 -0.79 -0.180327 0.126173 0.0097767 0.00971653 1.5405e-05 0.0097488 1.71618e-07 272.785 
-0.39 -0.77 -0.109267 0.0955362 0.00975454 0.00972449 1.04634e-05 0.00974535 1.71602e-07 272.713 
-0.43 -0.75 0.0504835 0.188462 0.00976371 0.00971323 -2.84536e-06 0.00974184 1.71464e-07 272.834 
-0.33 -0.79 -0.184295 0.287569 0.00976054 0.00971339 4.92999e-06 0.00973689 1.71414e-07 272.776 
-0.37 -0.77 -0.104233 0.150024 0.00975672 0.00971284 2.85273e-06 0.00973578 1.71418e-07 272.737 
-0.41 -0.75 0.00766418 0.339849 0.0097661 0.00970386 5.1982e-06 0.00974188 1.7152e-07 272.747 
-0.35 -0.77 -0.349828 0.227648 0.00976466 0.00971276 8.59086e-06 0.00973747 1.71327e-07 272.93 
-0.39 -0.75 -0.216642 0.124495 0.00977212 0.00972539 5.65218e-06 0.00975215 1.71669e-07 272.797 
-0.49 -0.75 -0.0383869 0.326172 0.00976131 0.00972836 7.57029e-06 0.00974878 1.71442e-07 273.063 
-0.47 -0.75 -0.0513837 0.506064 0.00976134 0.00973441 4.97987e-06 0.00974334 1.71337e-07 273.078 
-0.45 -0.75 -0.0796549 0.589577 0.00976001 0.00971056 -6.82499e-07 0.00973187 1.71433e-07 272.605 
-0.49 -0.73 -0.0944341 0.506989 0.00977361 0.00972191 6.49213e-06 0.0097474 1.71401e-07 273.09 
-0.47 -0.73 -0.192071 0.443671 0.00977479 0.00974415 5.25825e-06 0.00975553 1.71486e-07 273.182 
-0.45 -0.73 -0.0663221 0.355884 0.00977352 0.00971704 -5.65531e-06 0.00974093 1.7145e-07 272.831 
-0.49 -0.71 0.0153186 0.590769 0.00977308 0.00972159 1.44147e-06 0.00974557 1.71554e-07 272.796 
-0.43 -0.73 -0.0376482 0.351627 0.00976403 0.00970725 4.70222e-06 0.0097381 1.71403e-07 272.826 
-0.47 -0.71 -0.0177314 0.50753 0.00977417 0.00974162 1.61781e-06 0.0097558 1.71546e-07 273.094 
-0.37 -0.75 -0.200726 0.104868 0.00976122 0.00971294 1.31943e-05 0.00973612 1.71459e-07 272.682 
-0.41 -0.73 -0.083629 0.342856 0.00976179 0.00970087 -1.40291e-06 0.00973838 1.71531e-07 272.631 
-0.45 -0.71 0.0605314 0.22901 0.00976524 0.00972 9.82218e-06 0.0097422 1.71397e-07 272.951 
-0.49 -0.69 0.0396299 0.537089 0.00976862 0.00971883 -5.91394e-06 0.00974474 1.71477e-07 272.895 
-0.35 -0.75 -0.0578823 0.287187 0.00975441 0.00970937 1.00302e-05 0.00973338 1.71347e-07 272.783 
-0.39 -0.73 -0.120444 0.181018 0.00976373 0.00971076 1.2392e-05 0.00973935 1.71392e-07 272.879 
-0.43 -0.71 -0.0988921 0.385185 0.00976369 0.00970854 3.21363e-06 0.00974034 1.71579e-07 272.609 
-0.47 -0.69 0.148211 0.447737 0.00977171 0.00973004 5.18239e-06 0.0097512 1.7148e-07 273.071 
-0.37 -0.73 -0.340132 0.145801 0.00977001 0.00971994 1.23493e-05 0.0097453 1.71541e-07 272.808 
-0.41 -0.71 -0.134734 0.487427 0.00976679 0.00969563 3.04032e-06 0.00973861 1.71651e-07 272.447 
-0.45 -0.69 -0.0283122 0.390986 0.00977983 0.00971996 1.08679e-05 0.00975341 1.71646e-07 272.869 
-0.35 -0.73 -0.567423 0.411028 0.00976822 0.00971205 9.97445e-06 0.00974361 1.7157e-07 272.715 
-0.39 -0.71 -0.205356 0.214999 0.00976741 0.00971234 1.80496e-06 0.00973901 1.71492e-07 272.71 
-0.43 -0.69 -0.145944 0.517572 0.00977889 0.00971691 9.18904e-06 0.00975518 1.71846e-07 272.6 
-0.33 -0.73 -0.420076 0.113675 0.00976807 0.00970659 1.48106e-05 0.00973951 1.71553e-07 272.626 
-0.37 -0.71 -0.124615 0.269711 0.00976728 0.0097146 1.41759e-05 0.00974454 1.71552e-07 272.77 
-0.41 -0.69 -0.0963394 0.359493 0.00976942 0.00970177 3.9353e-06 0.0097379 1.71611e-07 272.49 
-0.35 -0.71 -0.244902 0.488065 0.00976658 0.00970617 9.0818e-06 0.00974447 1.71552e-07 272.768 
-0.39 -0.69 -0.0904769 0.378905 0.00976165 0.00970232 6.77526e-06 0.00973529 1.71392e-07 272.766 
-0.37 -0.69 -0.329339 0.325131 0.00976183 0.00971034 1.16317e-05 0.00973971 1.7145e-07 272.797 
-0.35 -0.69 -0.282818 0.523176 0.00976458 0.00970613 1.32552e-05 0.00973537 1.71362e-07 272.814 
-0.35 -0.67 -0.264877 0.439792 0.00977311 0.00971763 1.08689e-05 0.00974546 1.71507e-07 272.867 
-0.33 -0.67 -0.310325 0.493416 0.00975881 0.00970272 7.28868e-06 0.00974121 1.71544e-07 272.689 
-0.33 -0.75 -0.108861 0.226795 0.00975584 0.00971563 1.21544e-05 0.0097353 1.71341e-07 272.847 
-0.31 -0.73 -0.413434 0.485838 0.00976747 0.00972556 1.44127e-05 0.00975023 1.71573e-07 272.895 
-0.29 -0.73 -0.244177 0.522116 0.00977038 0.00970897 1.35053e-05 0.0097498 1.71544e-07 272.93 
-0.33 -0.71 -0.505443 0.108387 0.00976567 0.00971047 1.4191e-05 0.00974144 1.71484e-07 272.79 
-0.27 -0.73 -0.411383 0.506359 0.00976618 0.00971868 1.93298e-05 0.00975 1.71472e-07 273.049 
-0.31 -0.71 -0.393925 0.402871 0.00976646 0.00972349 1.57476e-05 0.0097483 1.71553e-07 272.874 
-0.29 -0.71 -0.448949 0.46255 0.00976128 0.00970684 1.86981e-05 0.00974154 1.71336e-07 273.029 
-0.33 -0.69 -0.319663 0.287315 0.00977411 0.00970996 4.46555e-06 0.0097455 1.71652e-07 272.637 
-0.27 -0.71 -0.383491 0.538073 0.00976428 0.00971321 1.29414e-05 0.00974094 1.71294e-07 273.08 
-0.31 -0.69 -0.546375 0.406754 0.00977669 0.0097145 1.44756e-05 0.00975009 1.71581e-07 272.878 
-0.29 -0.69 -0.475133 0.535945 0.00977845 0.009714 1.87327e-05 0.009752 1.7156e-07 272.965 
-0.27 -0.69 -0.503439 0.421079 0.00977912 0.00971819 1.41596e-05 0.00974854 1.71355e-07 273.196 
-0.31 -0.67 -0.378624 0.494406 0.0097584 0.00970893 1.20138e-05 0.00973812 1.71467e-07 272.725 
-0.29 -0.67 -0.454567 0.39815 0.00976419 0.00971286 1.44542e-05 0.00974058 1.71304e-07 273.053 
-0.41 -0.83 -0.190192 0.199782 0.00975886 0.00973148 7.74021e-06 0.00974686 1.71621e-07 272.725 
-0.39 -0.83 -0.186683 0.353006 0.00975585 0.00971831 6.02312e-06 0.00973418 1.7144e-07 272.657 
-0.37 -0.83 -0.190639 0.236332 0.00974826 0.00971472 7.13238e-06 0.00973081 1.71247e-07 272.871 
-0.35 -0.83 -0.274786 0.0987743 0.0097548 0.0097184 1.77925e-05 0.00973499 1.71325e-07 272.863 
-0.33 -0.83 -0.178891 0.336946 0.00975294 0.0097208 1.54118e-05 0.00973637 1.7124e-07 273.037 
-0.31 -0.83 -0.129272 -0.196761 0.00974615 0.00971277 1.95264e-05 0.00973747 1.71451e-07 272.732 
-0.29 -0.83 -0.21128 0.171683 0.00975353 0.00972019 1.79033e-05 0.0097459 1.71307e-07 273.198 
-0.27 -0.83 -0.329511 0.279653 0.00975532 0.00971762 5.65252e-06 0.00974495 1.71352e-07 273.099 
-0.27 -0.67 -0.462232 0.534518 0.00976113 0.0097176 1.8699e-05 0.00974138 1.71341e-07 273.018 
-0.25 -0.67 -0.462531 0.48225 0.00977266 0.0097225 1.23609e-05 0.00975368 1.7141e-07 273.252 
-0.25 -0.81 -0.284288 0.333471 0.00975913 0.00971357 8.40689e-06 0.00974349 1.71408e-07 272.97 
-0.25 -0.79 -0.294994 0.207603 0.00976813 0.00972286 1.96335e-05 0.00974501 1.71431e-07 272.975 
-0.35 -0.55 -0.246777 0.772477 0.00978324 0.009715 6.62237e-06 0.00974707 1.71453e-07 272.998 
-0.39 -0.53 -0.270268 0.908182 0.0097779 0.0096925 3.87506e-06 0.00974012 1.71376e-07 272.925 
-0.37 -0.57 -0.253369 0.80488 0.00977071 0.0097043 1.27512e-05 0.0097439 1.71351e-07 273.072 
-0.41 -0.55 -0.195479 0.872391 0.009761 0.0097022 7.25761e-06 0.00973833 1.71402e-07 272.835 
-0.45 -0.53 -0.120454 0.584854 0.0097629 0.00969599 1.12073e-06 0.00972905 1.71293e-07 272.747 
-0.35 -0.57 -0.231976 0.747707 0.00977867 0.00970567 1.97464e-05 0.00974417 1.71456e-07 272.912 
-0.39 -0.55 -0.33313 0.722298 0.00976298 0.00968818 5.09945e-06 0.00973681 1.71305e-07 272.946 
-0.43 -0.53 -0.211873 0.762339 0.0097678 0.0096934 5.11343e-06 0.00973324 1.71444e-07 272.624 
-0.47 -0.51 -0.0772805 0.760749 0.00976735 0.00970069 -1.05411e-06 0.00973532 1.71472e-07 272.639 
-0.37 -0.55 -0.301906 0.788782 0.00976686 0.00969357 7.65769e-06 0.0097377 1.71244e-07 273.069 
-0.41 -0.53 -0.256949 0.748118 0.00977375 0.00970366 4.49612e-06 0.00973869 1.71487e-07 272.71 
-0.45 -0.51 -0.285276 0.696369 0.00976733 0.00969214 3.83374e-06 0.00973423 1.71414e-07 272.699 
-0.37 -0.53 -0.273499 0.719914 0.00978096 0.00969536 -1.14536e-06 0.00974199 1.71448e-07 272.864 
-0.41 -0.51 -0.30103 0.769508 0.00976694 0.00970182 -1.04584e-06 0.00973764 1.71445e-07 272.746 
-0.35 -0.53 -0.341181 0.775619 0.00977381 0.00970738 8.38331e-06 0.00974177 1.71525e-07 272.735 
-0.39 -0.51 -0.33929 0.833 0.00977123 0.00969196 9.89454e-07 0.00973487 1.71448e-07 272.664 
-0.37 -0.51 -0.378428 0.810827 0.00976809 0.00969152 5.44025e-06 0.00973301 1.71294e-07 272.857 
-0.35 -0.51 -0.415291 0.825592 0.0097679 0.00970194 1.0567e-05 0.00973096 1.71366e-07 272.685 
-0.49 -0.65 -0.044427 0.466584 0.00976942 0.00972022 6.08296e-06 0.00974745 1.71475e-07 272.974 
-0.47 -0.65 -0.111367 0.438297 0.00976846 0.00971653 1.96028e-06 0.00974751 1.71507e-07 272.925 
-0.45 -0.65 -0.0559832 0.617077 0.00976403 0.00972241 8.02671e-06 0.00974827 1.7166e-07 272.702 
-0.49 -0.63 -0.00518016 0.470552 0.00976857 0.00972541 1.77436e-06 0.00975442 1.71757e-07 272.721 
-0.43 -0.65 0.00113333 0.629446 0.0097588 0.00970037 5.63393e-06 0.00973603 1.71462e-07 272.675 
-0.47 -0.63 -0.0153296 0.519343 0.00976408 0.00970542 1.40443e-06 0.00973996 1.71529e-07 272.677 
-0.41 -0.65 -0.00228142 0.535788 0.00976334 0.00970678 1.28663e-05 0.00973904 1.71416e-07 272.832 
-0.45 -0.63 -0.0572985 0.552692 0.00977449 0.00972443 8.64065e-06 0.00975432 1.7166e-07 272.871 
-0.49 -0.61 -0.0411328 0.577118 0.00976436 0.00971329 -4.48432e-06 0.00974521 1.71484e-07 272.896 
-0.39 -0.65 -0.0794915 0.468709 0.00976035 0.00971389 7.59572e-06 0.00974207 1.713e-07 273.102 
-0.43 -0.63 -0.0798482 0.62005 0.00977722 0.00970632 1.00433e-05 0.00974283 1.71354e-07 273.037 
-0.47 -0.61 -0.136052 0.487704 0.00976814 0.00971251 5.98728e-06 0.00974369 1.71469e-07 272.878 
-0.37 -0.65 -0.185503 0.467315 0.00976025 0.00969718 1.1744e-06 0.00972965 1.71135e-07 273.017 
-0.41 -0.63 -0.099455 0.628602 0.00977241 0.0096968 3.33092e-06 0.00973734 1.7137e-07 272.858 
-0.45 -0.61 -0.110047 0.609638 0.00976466 0.00971119 -3.3357e-06 0.00974099 1.71365e-07 272.967 
-0.49 -0.59 -0.0186254 0.551336 0.009775 0.00970491 -5.19805e-06 0.00974802 1.71651e-07 272.71 
-0.35 -0.65 -0.263312 0.471024 0.00976903 0.00971452 1.15258e-05 0.00974004 1.71436e-07 272.828 
-0.39 -0.63 -0.0543074 0.533692 0.00978144 0.00971891 1.2005e-05 0.00975072 1.71497e-07 273.03 
-0.43 -0.61 -0.0389812 0.658011 0.00977696 0.00970838 5.434e-06 0.00974293 1.7137e-07 273.013 
-0.47 -0.59 0.0837201 0.568914 0.00978465 0.00971601 -5.29482e-06 0.00975288 1.71574e-07 272.968 
-0.37 -0.63 -0.184816 0.487795 0.00976629 0.00969746 1.29714e-05 0.00973119 1.71208e-07 272.944 
-0.41 -0.61 -0.11881 0.556325 0.00977751 0.0097032 1.07471e-05 0.0097402 1.71362e-07 272.951 
-0.45 -0.59 0.0037832 0.471723 0.00978334 0.00971278 1.83533e-06 0.00975326 1.7157e-07 272.986 
-0.49 -0.57 -0.0460581 0.502379 0.00977897 0.00970746 -6.30444e-06 0.00974528 1.71493e-07 272.884 
-0.35 -0.63 -0.32087 0.582795 0.00976085 0.0097033 1.0628e-05 0.00973191 1.71281e-07 272.846 
-0.39 -0.61 -0.0582053 0.477135 0.00977609 0.0097057 1.10793e-05 0.00973953 1.71303e-07 273.026 
-0.43 -0.59 -0.0409647 0.777757 0.00977336 0.00969789 6.05799e-06 0.00974425 1.71538e-07 272.783 
-0.47 -0.57 -0.0672748 0.488464 0.00976687 0.00970791 -5.13254e-06 0.00973627 1.71361e-07 272.842 
-0.37 -0.61 -0.107639 0.709088 0.00977676 0.00970617 1.39426e-05 0.00974075 1.71503e-07 272.742 
-0.41 -0.59 0.0143759 0.518079 0.00977988 0.00970446 4.54774e-06 0.00974053 1.71407e-07 272.889 
-0.45 -0.57 -0.0412508 0.690545 0.00977006 0.00970476 2.87783e-06 0.00973924 1.71379e-07 272.896 
-0.49 -0.55 -0.0318557 0.594125 0.0097566 0.00970449 -5.4994e-06 0.00973479 1.71352e-07 272.814 
-0.35 -0.61 -0.113066 0.610338 0.00977131 0.00970063 1.09673e-05 0.00973453 1.71344e-07 272.82 
-0.39 -0.59 -0.026696 0.555294 0.00977577 0.00969151 9.98681e-06 0.00973827 1.71378e-07 272.871 
-0.43 -0.57 0.0518472 0.641112 0.00977225 0.00969806 5.57726e-06 0.00974026 1.71384e-07 272.917 
-0.47 -0.55 -0.144847 0.63321 0.00976593 0.00969921 1.35097e-06 0.00973958 1.71524e-07 272.675 
-0.33 -0.61 -0.361524 0.598979 0.00976737 0.00969889 1.82929e-05 0.00973556 1.7127e-07 272.967 
-0.37 -0.59 -0.109114 0.699159 0.00978245 0.00971727 2.12671e-05 0.00975241 1.71607e-07 272.902 
-0.41 -0.57 -0.068005 0.639257 0.00976533 0.0097032 1.36747e-05 0.0097384 1.71268e-07 273.049 
-0.45 -0.55 -0.183179 0.521417 0.00976092 0.00970001 4.05514e-06 0.00972862 1.71213e-07 272.864 
-0.49 -0.53 0.0262497 0.667252 0.00976431 0.00969651 -1.28357e-06 0.00973747 1.71358e-07 272.881 
-0.35 -0.59 -0.276113 0.737037 0.00977263 0.00969436 1.57404e-05 0.00973153 1.71353e-07 272.721 
-0.39 -0.57 -0.24776 0.713151 0.0097679 0.00968505 8.15832e-06 0.00973433 1.71231e-07 272.995 
-0.43 -0.55 -0.174173 0.559718 0.00975948 0.00969378 9.7255e-06 0.00973003 1.71332e-07 272.713 
-0.47 -0.53 -0.0372595 0.588516 0.00975786 0.00969969 1.22133e-06 0.00972856 1.71245e-07 272.811 
-0.29 -0.57 -0.584338 0.63734 0.00977475 0.00971216 1.81837e-05 0.00974808 1.71465e-07 273.007 
-0.33 -0.55 -0.406849 0.855898 0.00978539 0.00970892 1.00562e-05 0.00974983 1.71534e-07 272.947 
-0.29 -0.61 -0.322649 0.549102 0.00977042 0.00971843 9.09856e-06 0.00974701 1.71652e-07 272.679 
-0.33 -0.59 -0.265497 0.858762 0.00977141 0.00970457 1.3267e-05 0.00974154 1.7134e-07 273.022 
-0.27 -0.61 -0.340335 0.509566 0.0097799 0.00970953 1.50942e-05 0.00974819 1.71636e-07 272.738 
-0.31 -0.59 -0.444524 0.638511 0.00977262 0.00970985 1.05029e-05 0.00974105 1.71463e-07 272.813 
-0.29 -0.59 -0.353057 0.383405 0.00977677 0.00972016 1.09369e-05 0.00974633 1.71585e-07 272.768 
-0.33 -0.57 -0.323389 0.803602 0.00978059 0.00971222 6.94834e-06 0.00974841 1.71473e-07 273.004 
-0.27 -0.59 -0.459642 0.640485 0.00976823 0.00970072 1.25478e-05 0.0097377 1.71454e-07 272.733 
-0.31 -0.57 -0.347977 0.685245 0.00978092 0.00970767 7.33299e-06 0.00974675 1.71555e-07 272.827 
-0.27 -0.57 -0.639443 0.649704 0.00976845 0.00970233 2.5614e-05 0.00974746 1.71592e-07 272.788 
-0.31 -0.55 -0.356434 0.916827 0.00977439 0.0097076 1.79217e-05 0.00974472 1.71451e-07 272.935 
-0.29 -0.55 -0.519015 0.64395 0.0097638 0.0096945 2.33058e-05 0.00973232 1.71265e-07 272.884 
-0.33 -0.53 -0.325032 1.05446 0.00977142 0.00969782 1.30526e-05 0.00973608 1.71291e-07 272.948 
-0.27 -0.55 -0.447639 0.572238 0.00976714 0.00970913 1.88192e-05 0.00973891 1.71382e-07 272.882 
-0.31 -0.53 -0.375719 0.735375 0.00977153 0.00970341 2.39427e-05 0.00974278 1.71475e-07 272.842 
-0.29 -0.53 -0.280614 0.668217 0.00978334 0.00969966 1.88283e-05 0.009748 1.71484e-07 272.974 
-0.33 -0.51 -0.278519 0.897266 0.00976296 0.00969151 1.62971e-05 0.00973171 1.71146e-07 273.056 
-0.27 -0.53 -0.467124 0.781171 0.00977888 0.00971089 2.33762e-05 0.00974443 1.71474e-07 272.891 
-0.31 -0.51 -0.321733 0.853948 0.00976458 0.0097015 1.71496e-05 0.00973096 1.71296e-07 272.796 
-0.29 -0.51 -0.521583 0.783809 0.00975894 0.00969871 2.34923e-05 0.00973796 1.71441e-07 272.762 
-0.27 -0.51 -0.578515 1.03802 0.00975711 0.00970268 2.75002e-05 0.00973647 1.71299e-07 272.946 
-0.33 -0.65 -0.343108 0.426413 0.00977285 0.00970764 1.84743e-05 0.00973952 1.71336e-07 272.972 
-0.31 -0.65 -0.29049 0.590048 0.00976744 0.00970997 1.34345e-05 0.00974009 1.7134e-07 272.982 
-0.29 -0.65 -0.463513 0.520731 0.0097586 0.00970235 1.2102e-05 0.00972834 1.71112e-07 273.016 
-0.33 -0.63 -0.270423 0.481599 0.00976083 0.00970899 8.34554e-06 0.00973965 1.71418e-07 272.846 
-0.27 -0.65 -0.445799 0.475006 0.00977096 0.00972348 1.08337e-05 0.0097473 1.7146e-07 272.993 
-0.31 -0.63 -0.390873 0.671995 0.00976348 0.00970446 1.70951e-05 0.00973685 1.71288e-07 272.974 
-0.25 -0.65 -0.525037 0.42657 0.00976547 0.00972012 1.26739e-05 0.00974243 1.71412e-07 272.933 
-0.29 -0.63 -0.423364 0.437427 0.00977178 0.00971714 1.2345e-05 0.00974418 1.71493e-07 272.853 
-0.27 -0.63 -0.422167 0.511225 0.00975891 0.00971361 1.18518e-05 0.00973668 1.71437e-07 272.733 
-0.31 -0.61 -0.440129 0.555295 0.00977112 0.00971068 1.10337e-05 0.00974628 1.71594e-07 272.752 
-0.49 -0.67 0.0557401 0.457673 0.00976836 0.00971846 -6.72869e-06 0.00974255 1.71481e-07 272.826 
-0.47 -0.67 0.0450532 0.412489 0.0097666 0.00972298 2.68658e-06 0.00974407 1.71537e-07 272.781 
-0.45 -0.67 0.0702052 0.532781 0.00976449 0.00971962 4.40798e-06 0.00974717 1.71557e-07 272.835 
-0.43 -0.67 -0.0905504 0.643598 0.00977022 0.00971012 8.81695e-06 0.00974357 1.71573e-07 272.709 