ITEM: TIMESTEP
855500
ITEM: NUMBER OF CELLS
5000
ITEM: BOX BOUNDS ss ss pp
-0.5 0.5
-1 1
-0.5 0.5
ITEM: CELLS xc yc f_U[*] f_V[*] f_Tau[1] f_Tau[2] f_Tau[3] f_Press[*] f_Mrho[*] f_Ttra[*] 
-0.49 -0.99 -0.103103 0.0938673 0.00977191 0.00973044 1.12453e-05 0.00976104 1.71864e-07 272.735 
-0.47 -0.99 -0.213331 -0.0460249 0.00975862 0.00971935 -8.20379e-06 0.00974307 1.71631e-07 272.603 
-0.45 -0.99 -0.279384 -0.00328192 0.00974107 0.00971853 2.92573e-06 0.00973241 1.71413e-07 272.651 
-0.49 -0.97 -0.154276 0.170371 0.00973796 0.00972334 1.57097e-05 0.00972995 1.71085e-07 273.105 
-0.43 -0.99 -0.412916 0.169659 0.0097299 0.00974253 5.89516e-06 0.00974694 1.71289e-07 273.256 
-0.47 -0.97 -0.176684 0.185939 0.00973568 0.00972098 1.90316e-05 0.009736 1.71449e-07 272.694 
-0.41 -0.99 -0.315335 -0.119956 0.00972271 0.00974964 2.6978e-06 0.00974119 1.71457e-07 272.827 
-0.45 -0.97 -0.109354 -0.0402806 0.00973039 0.00972352 4.93446e-08 0.00972936 1.71347e-07 272.67 
-0.49 -0.95 0.104636 0.173212 0.0097063 0.00971093 -8.15299e-06 0.00971421 1.70977e-07 272.835 
-0.39 -0.99 -0.24285 -0.129308 0.00972395 0.00970991 -8.95639e-06 0.00971571 1.70639e-07 273.418 
-0.43 -0.97 0.123409 0.023504 0.00974848 0.00974492 -5.26189e-06 0.00974637 1.71386e-07 273.085 
-0.47 -0.95 0.104741 0.191341 0.00972961 0.00972303 5.56417e-06 0.00972122 1.7122e-07 272.645 
-0.37 -0.99 -0.0909067 0.0191177 0.00972202 0.00971057 1.44404e-05 0.00971677 1.7093e-07 272.981 
-0.41 -0.97 0.096408 -0.105082 0.00974422 0.00974879 5.24374e-06 0.0097492 1.7116e-07 273.526 
-0.45 -0.95 0.241256 -0.169829 0.00974121 0.00974866 5.972e-06 0.00975033 1.71776e-07 272.577 
-0.49 -0.93 0.0391028 0.10654 0.00975113 0.00972207 2.36665e-06 0.00974201 1.7148e-07 272.813 
-0.35 -0.99 -0.0692086 -0.153008 0.00970312 0.00968525 1.32744e-05 0.00968759 1.70578e-07 272.724 
-0.39 -0.97 0.214147 -0.0883193 0.00971856 0.00970966 1.73007e-05 0.00972662 1.71175e-07 272.868 
-0.43 -0.95 0.142166 -0.0183451 0.00973536 0.00972593 -9.14512e-07 0.00973215 1.71314e-07 272.801 
-0.47 -0.93 0.198817 0.0873577 0.00974838 0.00972248 -6.0072e-06 0.0097369 1.71354e-07 272.871 
-0.33 -0.99 0.0862719 0.0745919 0.00970482 0.00969756 7.24131e-06 0.00969464 1.70671e-07 272.774 
-0.37 -0.97 0.0468518 -0.0335023 0.0097019 0.0097017 1.6473e-05 0.00970027 1.70749e-07 272.807 
-0.41 -0.95 0.0327654 -0.164996 0.00972843 0.00973243 1.19097e-05 0.00972841 1.71354e-07 272.633 
-0.45 -0.93 0.19453 -0.0797186 0.00974552 0.00973952 -5.16414e-06 0.00973208 1.7145e-07 272.582 
-0.49 -0.91 0.148788 -0.0113536 0.00979398 0.00974325 1.55512e-05 0.00976932 1.71506e-07 273.536 
-0.35 -0.97 -0.0685015 -0.162777 0.00970867 0.00969624 1.10403e-05 0.00969913 1.70584e-07 273.039 
-0.39 -0.95 -0.0566898 -0.14618 0.00973139 0.00971137 2.04543e-05 0.00971544 1.71087e-07 272.694 
-0.43 -0.93 0.348985 -0.10211 0.00974279 0.0097176 2.84915e-06 0.00971889 1.71101e-07 272.769 
-0.47 -0.91 -0.185821 0.0413484 0.00977276 0.00971826 -2.1397e-06 0.00974111 1.71521e-07 272.724 
-0.33 -0.97 -0.268463 -0.0219481 0.00970852 0.0096923 8.34235e-06 0.00970978 1.7104e-07 272.609 
-0.37 -0.95 -0.180334 0.11149 0.00974329 0.00970964 2.60671e-05 0.00972577 1.71099e-07 272.965 
-0.41 -0.93 0.0346565 0.0308257 0.00974699 0.00973113 2.91515e-05 0.00972442 1.71234e-07 272.712 
-0.45 -0.91 0.052471 -0.301099 0.00977527 0.00973788 3.67782e-06 0.00974843 1.71461e-07 273.023 
-0.49 -0.89 -0.1294 0.165228 0.00979506 0.00975086 5.72761e-06 0.00976182 1.71633e-07 273.125 
-0.35 -0.95 -0.0759289 -0.0375475 0.0097483 0.00970324 2.25168e-06 0.00972658 1.71246e-07 272.754 
-0.39 -0.93 -0.232836 0.0843876 0.00973305 0.00970814 1.14029e-05 0.00971445 1.71018e-07 272.776 
-0.43 -0.91 -0.232959 0.0312664 0.00975518 0.00971459 1.20518e-05 0.00972702 1.7084e-07 273.414 
-0.47 -0.89 0.0352228 -0.153116 0.0097815 0.0097315 1.32955e-05 0.00975018 1.71791e-07 272.548 
-0.37 -0.93 -0.150798 0.0224202 0.00974694 0.0097135 -7.44373e-06 0.00973734 1.7137e-07 272.858 
-0.41 -0.91 -0.265728 0.545849 0.00975505 0.00970371 8.74337e-06 0.00972128 1.71217e-07 272.65 
-0.45 -0.89 -0.349658 0.0105663 0.00976174 0.00972083 4.16381e-06 0.00973819 1.71298e-07 272.996 
-0.49 -0.87 0.0360535 0.190987 0.00974455 0.00972592 2.19664e-06 0.00972685 1.71182e-07 272.863 
-0.35 -0.93 -0.612821 0.313359 0.00975776 0.00970684 3.85127e-06 0.00972304 1.71216e-07 272.701 
-0.39 -0.91 -0.226611 -0.0914106 0.00977942 0.00973412 1.43843e-05 0.0097635 1.71674e-07 273.106 
-0.43 -0.89 -0.518932 0.29188 0.00977241 0.00971856 1.92525e-05 0.00974764 1.71274e-07 273.299 
-0.47 -0.87 0.00956535 0.133773 0.00975289 0.00973576 9.19435e-06 0.00974289 1.71405e-07 272.958 
-0.37 -0.91 -0.325479 0.291219 0.00976125 0.00972122 7.69529e-06 0.00974674 1.71392e-07 273.087 
-0.41 -0.89 -0.454975 0.375866 0.00976761 0.00970677 1.48191e-06 0.00974085 1.71412e-07 272.888 
-0.45 -0.87 -0.449088 0.174374 0.00976106 0.00970531 1.38098e-05 0.00974288 1.7143e-07 272.918 
-0.49 -0.85 -0.0122559 0.15572 0.00975023 0.00971722 -9.75724e-06 0.00972666 1.71304e-07 272.663 
-0.35 -0.91 -0.121769 0.312049 0.00974497 0.00970051 -1.04096e-07 0.00971351 1.70784e-07 273.124 
-0.39 -0.89 -0.423339 0.124731 0.00976017 0.00972282 1.42056e-05 0.00974693 1.71459e-07 272.984 
-0.43 -0.87 -0.218645 0.157297 0.00975013 0.00973708 1.20498e-05 0.00974721 1.71646e-07 272.695 
-0.47 -0.85 0.0102797 0.438215 0.00976083 0.00972864 1.36955e-05 0.00974922 1.71404e-07 273.137 
-0.33 -0.91 -0.436171 0.136221 0.00975659 0.00971301 1.36306e-06 0.00972926 1.71247e-07 272.826 
-0.37 -0.89 -0.283013 -0.0319894 0.00977145 0.00973497 1.9723e-05 0.00975424 1.71284e-07 273.469 
-0.41 -0.87 -0.12969 0.365901 0.00975727 0.00972018 1.32704e-05 0.00974658 1.71569e-07 272.8 
-0.45 -0.85 0.0576138 0.230045 0.00976016 0.00971165 1.67081e-05 0.00973828 1.71337e-07 272.937 
-0.35 -0.89 -0.318986 0.509788 0.00976879 0.00970492 2.55965e-06 0.00972825 1.71183e-07 272.9 
-0.39 -0.87 -0.242063 -0.046628 0.00976966 0.00971166 3.67499e-07 0.00974338 1.71584e-07 272.686 
-0.43 -0.85 -0.308548 0.249543 0.0097756 0.00973358 -1.2919e-06 0.00974708 1.7165e-07 272.685 
-0.37 -0.87 -0.396306 0.0702503 0.00977495 0.00973267 5.84214e-06 0.00974981 1.71508e-07 272.987 
-0.41 -0.85 -0.331166 0.419216 0.00977175 0.00972043 1.18242e-05 0.00974707 1.71576e-07 272.803 
-0.35 -0.87 -0.0950596 0.36192 0.00978219 0.00972664 8.00878e-06 0.00975624 1.71533e-07 273.128 
-0.39 -0.85 -0.477795 0.407006 0.00976596 0.00972534 1.3583e-07 0.00974445 1.71625e-07 272.651 
-0.33 -0.87 -0.234537 0.135354 0.00977342 0.00970595 8.01105e-06 0.00974271 1.71387e-07 272.981 
-0.37 -0.85 -0.497672 -0.373327 0.00976649 0.009721 3.68491e-06 0.00974769 1.71519e-07 272.91 
-0.35 -0.85 -0.521365 0.0887704 0.00976321 0.0097273 9.77443e-06 0.00974922 1.71251e-07 273.38 
-0.33 -0.85 -0.39514 0.526669 0.00975331 0.0096959 1.82718e-05 0.00971871 1.70877e-07 273.121 
-0.31 -0.99 0.0848598 0.0731281 0.0097064 0.00968551 1.1583e-05 0.00969581 1.70896e-07 272.448 
-0.29 -0.99 -0.278054 0.298285 0.00971345 0.00970631 2.93119e-06 0.00969849 1.70807e-07 272.664 
-0.27 -0.99 -0.195075 -0.293953 0.00974497 0.00972658 2.97687e-06 0.00972638 1.70955e-07 273.212 
-0.31 -0.97 -0.645691 0.262437 0.00973478 0.00970841 -1.02727e-05 0.00972716 1.71393e-07 272.536 
-0.29 -0.97 -0.48548 0.122815 0.00974616 0.00970729 -1.10649e-06 0.00973579 1.71363e-07 272.825 
-0.33 -0.95 -0.277806 0.30733 0.00975924 0.00971299 -1.15011e-06 0.00973487 1.71426e-07 272.7 
-0.27 -0.97 0.0164696 -0.494423 0.00973572 0.00971822 -2.07854e-06 0.00973848 1.71575e-07 272.563 
-0.31 -0.95 -0.133395 0.360084 0.00973956 0.00969894 -1.64688e-06 0.00971832 1.71441e-07 272.213 
-0.29 -0.95 -0.0228578 -0.270744 0.00973075 0.00969326 -9.07037e-07 0.00971051 1.71335e-07 272.16 
-0.33 -0.93 -0.382377 0.0456936 0.00975594 0.00971137 6.0897e-06 0.00973138 1.71275e-07 272.841 
-0.27 -0.95 -0.414307 -0.410148 0.00974063 0.00974373 -3.05321e-06 0.0097439 1.7152e-07 272.803 
-0.31 -0.93 -0.261478 0.190705 0.00976199 0.00970548 5.54137e-06 0.00973038 1.7142e-07 272.583 
-0.29 -0.93 -0.465803 0.0369692 0.00976448 0.00969814 -5.91164e-06 0.00973416 1.71629e-07 272.356 
-0.27 -0.93 -0.272864 -0.345462 0.00978567 0.00973967 -9.46183e-06 0.00976863 1.72102e-07 272.57 
-0.31 -0.91 -0.368862 0.304149 0.00976627 0.00970608 1.29934e-06 0.00974351 1.71568e-07 272.716 
-0.29 -0.91 -0.363882 -0.168962 0.00975864 0.00970879 -1.58296e-05 0.00972691 1.71241e-07 272.771 
-0.33 -0.89 -0.173071 0.0499893 0.00976679 0.00971709 -9.58076e-06 0.00973833 1.71158e-07 273.224 
-0.27 -0.91 -0.341348 -0.260169 0.00975066 0.00971563 -7.15173e-06 0.00972581 1.71379e-07 272.52 
-0.31 -0.89 -0.141894 0.162657 0.00976897 0.0096979 -5.6116e-06 0.00974136 1.71537e-07 272.705 
-0.29 -0.89 0.0482444 -0.116725 0.00977066 0.0097242 -4.71691e-06 0.00974762 1.71382e-07 273.126 
-0.27 -0.89 -0.267755 -0.134637 0.00975128 0.00970195 2.08819e-06 0.00973345 1.7143e-07 272.652 
-0.31 -0.87 -0.332665 0.0273193 0.00974428 0.00970119 7.24464e-06 0.00972616 1.7133e-07 272.608 
-0.29 -0.87 -0.218265 -0.177844 0.00972529 0.00971925 1.0698e-05 0.00972843 1.7118e-07 272.91 
-0.27 -0.87 -0.261667 0.316592 0.00972542 0.0097067 1.97553e-06 0.00971247 1.71171e-07 272.477 
-0.31 -0.85 -0.226473 -0.274538 0.00976225 0.00971186 1.74414e-05 0.00973324 1.71561e-07 272.438 
-0.29 -0.85 -0.0655739 -0.0522633 0.00975783 0.00971623 1.77866e-05 0.00974365 1.71497e-07 272.833 
-0.27 -0.85 -0.237102 0.513096 0.00975121 0.00971833 9.21081e-06 0.00974156 1.7096e-07 273.631 
-0.25 -0.99 -0.127195 0.0584771 0.00976157 0.00975026 -3.08111e-07 0.0097508 1.71469e-07 273.077 
-0.25 -0.97 0.0243686 0.345643 0.00974511 0.00974975 -1.56358e-05 0.00975048 1.71506e-07 273.009 
-0.25 -0.95 -0.297654 0.268188 0.0097294 0.00974088 -5.87997e-06 0.00974727 1.715e-07 272.929 
-0.25 -0.93 -0.315588 0.0608246 0.00977083 0.00973672 9.57073e-06 0.00975382 1.71563e-07 273.011 
-0.25 -0.91 -0.0537697 -0.178409 0.00975284 0.00972331 1.12318e-05 0.00973529 1.71495e-07 272.601 
-0.25 -0.89 -0.595203 -0.0885764 0.00975669 0.00971729 9.29801e-06 0.00973116 1.71165e-07 273.011 
-0.25 -0.87 -0.655229 -0.0795338 0.00972255 0.00970533 3.8932e-06 0.00972122 1.70886e-07 273.177 
-0.25 -0.85 -0.207106 0.188138 0.00975246 0.00971085 -6.19037e-06 0.00973711 1.71127e-07 273.239 
-0.25 -0.83 -0.154574 0.0177083 0.00976753 0.0097049 5.879e-06 0.00975353 1.71213e-07 273.561 
-0.33 -0.81 0.132037 0.134799 0.00976327 0.0097004 1.17473e-05 0.00972738 1.71246e-07 272.775 
-0.31 -0.81 -0.125089 0.183117 0.0097799 0.00971676 8.16989e-06 0.00974354 1.71233e-07 273.25 
-0.29 -0.81 -0.212219 0.0368065 0.00978275 0.00972505 -2.58538e-06 0.0097573 1.71444e-07 273.3 
-0.27 -0.81 -0.0528589 0.199712 0.00978206 0.00972607 8.26493e-06 0.00976771 1.71605e-07 273.334 
-0.31 -0.79 0.0731267 0.251532 0.00976785 0.00972332 4.43657e-07 0.00973865 1.71464e-07 272.745 
-0.29 -0.79 -0.303524 0.269219 0.00975682 0.00972226 -1.73796e-06 0.00973201 1.71355e-07 272.731 
-0.33 -0.77 -0.172117 0.225158 0.00976007 0.00972051 1.19375e-05 0.00973414 1.71315e-07 272.856 
-0.27 -0.79 -0.600428 0.23968 0.00974276 0.00969619 6.32238e-06 0.00972508 1.71073e-07 272.986 
-0.31 -0.77 -0.242373 0.271084 0.00975176 0.00970645 3.77608e-06 0.00973127 1.71341e-07 272.734 
-0.29 -0.77 -0.239216 0.663146 0.00976813 0.00972694 1.7842e-05 0.00975064 1.71725e-07 272.665 
-0.27 -0.77 -0.448422 0.371467 0.00976415 0.00969706 9.55026e-06 0.00974111 1.71566e-07 272.652 
-0.31 -0.75 0.106688 0.807947 0.0097483 0.00972077 3.12034e-06 0.00974714 1.71683e-07 272.634 
-0.29 -0.75 -0.413825 0.780873 0.00974966 0.00971497 7.29918e-06 0.00973433 1.71352e-07 272.801 
-0.27 -0.75 -0.551052 0.543305 0.00975638 0.00970167 1.72846e-05 0.00972847 1.71225e-07 272.84 
-0.49 -0.83 -0.133148 0.244448 0.00974595 0.00971065 7.46626e-06 0.00973275 1.71288e-07 272.859 
-0.47 -0.83 -0.0163554 0.287261 0.00974903 0.00971721 -1.38079e-06 0.00973566 1.71553e-07 272.519 
-0.45 -0.83 0.0943254 0.233164 0.00975268 0.00972901 -1.35134e-06 0.00974339 1.71299e-07 273.14 
-0.49 -0.81 0.0966986 0.0984106 0.00974699 0.00971843 -5.65095e-06 0.00974457 1.71324e-07 273.134 
-0.43 -0.83 0.168504 0.338517 0.00973776 0.00971116 1.00447e-05 0.0097221 1.71289e-07 272.56 
-0.47 -0.81 -0.0201268 0.391239 0.00974571 0.0097204 -3.20825e-06 0.00974985 1.71458e-07 273.068 
-0.45 -0.81 -0.129026 0.167708 0.0097554 0.00970976 1.0889e-05 0.00974069 1.71665e-07 272.483 
-0.49 -0.79 -0.23356 0.389137 0.00973716 0.00971783 1.07972e-05 0.00973185 1.71307e-07 272.804 
-0.43 -0.81 -0.250071 0.46509 0.00977739 0.00972876 3.81593e-06 0.00975347 1.71852e-07 272.542 
-0.47 -0.79 -0.245197 0.286021 0.009732 0.00972076 -2.08557e-06 0.00972588 1.71278e-07 272.683 
-0.41 -0.81 -0.403331 0.785098 0.0097484 0.0097104 1.24296e-05 0.00973838 1.71473e-07 272.723 
-0.45 -0.79 -0.453534 0.358698 0.009726 0.00971585 -1.06628e-05 0.00972213 1.71188e-07 272.72 
-0.49 -0.77 0.22754 0.372623 0.00973552 0.00972755 1.17187e-06 0.00972541 1.71138e-07 272.893 
-0.39 -0.81 -0.316603 0.129921 0.00975091 0.00972617 1.08838e-05 0.0097597 1.71658e-07 273.025 
-0.43 -0.79 -0.427976 0.50687 0.0097416 0.00971204 -1.70488e-06 0.00973369 1.71372e-07 272.752 
-0.47 -0.77 -0.0869681 0.517527 0.00974436 0.00972132 -8.45816e-07 0.00973182 1.71215e-07 272.95 
-0.37 -0.81 0.2219 -0.0231429 0.00975562 0.00972105 -8.58224e-07 0.00974054 1.71468e-07 272.791 
-0.41 -0.79 -0.354969 0.587517 0.00977106 0.00971733 1.3663e-06 0.00974937 1.71823e-07 272.474 
-0.45 -0.77 -0.53047 0.842728 0.00975545 0.00973009 -7.90867e-06 0.00974674 1.71558e-07 272.821 
-0.35 -0.81 0.168114 -0.0111866 0.00975042 0.00970888 1.30223e-05 0.00974586 1.71411e-07 273.03 
-0.39 -0.79 0.04921 -0.29039 0.00977321 0.00971784 7.0109e-06 0.00974959 1.71596e-07 272.841 
-0.43 -0.77 -0.598171 0.461058 0.00973312 0.00970149 -8.19345e-06 0.00972288 1.71198e-07 272.726 
-0.37 -0.79 -0.100103 0.0630818 0.00977846 0.00973194 1.75725e-05 0.00975156 1.71525e-07 273.01 
-0.41 -0.77 -0.279224 -0.011243 0.00972322 0.00970473 -2.81917e-06 0.00971817 1.71369e-07 272.321 
-0.35 -0.79 -0.0424959 0.14568 0.00977102 0.00970746 8.66394e-06 0.00974008 1.71523e-07 272.691 
-0.39 -0.77 0.0732634 -0.114653 0.00973424 0.00972283 1.01243e-07 0.00974437 1.71582e-07 272.717 
-0.43 -0.75 0.21984 0.27584 0.00974865 0.00970274 -1.0569e-06 0.00973052 1.71443e-07 272.551 
-0.33 -0.79 -0.0260128 0.256024 0.00976605 0.00970561 1.81888e-06 0.00972938 1.71448e-07 272.51 
-0.37 -0.77 0.148282 0.0761471 0.0097432 0.00971686 3.75243e-06 0.00972804 1.71313e-07 272.688 
-0.41 -0.75 0.193121 0.0858139 0.00974919 0.0097105 1.91533e-06 0.00974156 1.71528e-07 272.725 
-0.35 -0.77 0.0795308 0.403184 0.00975836 0.00972042 2.23226e-06 0.00975325 1.7126e-07 273.479 
-0.39 -0.75 -0.132605 0.110947 0.00974565 0.00970889 -7.82157e-07 0.0097401 1.715e-07 272.728 
-0.49 -0.75 -0.137491 0.338424 0.00974379 0.00973354 -3.93676e-06 0.00973944 1.71003e-07 273.502 
-0.47 -0.75 -0.138636 0.691835 0.00974808 0.00972853 -9.64833e-06 0.00973406 1.71106e-07 273.187 
-0.45 -0.75 0.257834 0.838929 0.00974312 0.00971822 -4.19473e-06 0.0097306 1.71411e-07 272.603 
-0.49 -0.73 -0.0805596 0.492879 0.00978651 0.00972986 8.76172e-06 0.0097647 1.71303e-07 273.732 
-0.47 -0.73 -0.0720597 0.654391 0.00977288 0.00974531 8.20685e-07 0.00976599 1.71364e-07 273.67 
-0.45 -0.73 -0.0907624 0.30923 0.00976552 0.00970503 -7.01658e-06 0.0097364 1.71418e-07 272.755 
-0.49 -0.71 -0.0700741 0.563465 0.00979551 0.00974028 1.12022e-05 0.00977902 1.71886e-07 273.202 
-0.43 -0.73 0.308862 0.433762 0.00975708 0.00971352 2.24854e-06 0.00974632 1.71487e-07 272.922 
-0.47 -0.71 -0.0999811 0.606743 0.00980023 0.00974198 1.05657e-05 0.00977192 1.71706e-07 273.291 
-0.37 -0.75 -0.383882 -0.0750556 0.0097292 0.00972387 5.10737e-06 0.00972759 1.71463e-07 272.436 
-0.41 -0.73 0.242975 0.30366 0.00975146 0.0097031 -5.91166e-06 0.009739 1.71391e-07 272.871 
-0.45 -0.71 0.381176 0.0371551 0.00977918 0.00971391 1.27681e-05 0.00975051 1.71633e-07 272.808 
-0.49 -0.69 -0.0183423 0.530658 0.00977087 0.0097311 -7.73814e-06 0.00975339 1.71502e-07 273.097 
-0.35 -0.75 -0.0683569 0.160533 0.00973258 0.0097268 7.72384e-06 0.00973561 1.71419e-07 272.731 
-0.39 -0.73 0.169569 -0.0771082 0.00974994 0.00969878 1.14289e-05 0.00972709 1.71243e-07 272.772 
-0.43 -0.71 0.0288947 0.143081 0.0097673 0.00971669 5.90807e-06 0.00974453 1.71668e-07 272.585 
-0.47 -0.69 0.440199 0.258137 0.00977547 0.00971994 1.79815e-05 0.009757 1.71544e-07 273.132 
-0.37 -0.73 0.362402 0.0554801 0.00976187 0.00973409 8.83942e-06 0.009746 1.71739e-07 272.513 
-0.41 -0.71 0.355282 0.512695 0.00977753 0.00969206 1.03276e-06 0.00974868 1.71835e-07 272.435 
-0.45 -0.69 0.179631 0.354762 0.00980127 0.00972572 1.63103e-05 0.00976953 1.71957e-07 272.825 
-0.35 -0.73 -0.178776 0.167767 0.00974898 0.00972382 3.67318e-06 0.00975205 1.71598e-07 272.907 
-0.39 -0.71 0.21953 0.119417 0.00978116 0.0097096 -9.19795e-07 0.00975265 1.71756e-07 272.672 
-0.43 -0.69 0.000111014 0.247212 0.00980895 0.00973055 1.11121e-05 0.00977076 1.72307e-07 272.306 
-0.33 -0.73 -0.358149 0.0858763 0.00975246 0.0097072 1.18816e-05 0.00974652 1.71803e-07 272.427 
-0.37 -0.71 0.050211 -0.0499198 0.00976501 0.00972359 1.18625e-05 0.00975886 1.71848e-07 272.7 
-0.41 -0.69 0.0603295 -0.0708761 0.00978847 0.00970393 3.01855e-06 0.009747 1.71796e-07 272.45 
-0.35 -0.71 -0.18352 0.585501 0.00976085 0.00971923 5.17451e-06 0.00976915 1.71879e-07 272.939 
-0.39 -0.69 0.0975197 0.374691 0.00976949 0.00969325 1.28458e-05 0.00973254 1.71641e-07 272.293 
-0.37 -0.69 -0.0353972 0.214966 0.00978173 0.00971828 9.68805e-06 0.00976213 1.7176e-07 272.931 
-0.35 -0.69 0.0447578 0.71132 0.00978242 0.00973008 1.93184e-05 0.00976351 1.71648e-07 273.148 
-0.35 -0.67 -0.139088 0.619638 0.00977905 0.00974241 1.50319e-05 0.00975309 1.71459e-07 273.157 
-0.33 -0.67 -0.1468 0.595588 0.00976894 0.00971709 2.33065e-06 0.00975127 1.71592e-07 272.895 
-0.33 -0.75 0.383168 0.145075 0.0097354 0.00970674 1.63218e-06 0.00972799 1.71552e-07 272.306 
-0.31 -0.73 -0.224951 0.955658 0.00976046 0.00973451 -6.94848e-06 0.00975005 1.71651e-07 272.767 
-0.29 -0.73 0.0245923 1.08064 0.00975213 0.00969384 1.19197e-06 0.00972837 1.71244e-07 272.807 
-0.33 -0.71 -0.484521 0.13771 0.00976089 0.00972242 4.89759e-06 0.00974658 1.7158e-07 272.783 
-0.27 -0.73 -0.115581 0.61058 0.0097576 0.00971349 1.17139e-05 0.00974737 1.71249e-07 273.332 
-0.31 -0.71 -0.281363 0.572798 0.00974359 0.00972836 9.99296e-06 0.00975566 1.71839e-07 272.625 
-0.29 -0.71 0.00068361 0.849655 0.00973654 0.00968417 7.21975e-06 0.00972664 1.71163e-07 272.888 
-0.33 -0.69 -0.192511 0.340045 0.00977627 0.00971324 -1.23578e-06 0.00975044 1.71791e-07 272.555 
-0.27 -0.71 0.138295 0.711725 0.00974958 0.00970778 2.23732e-07 0.00973278 1.71249e-07 272.922 
-0.31 -0.69 -0.553699 0.35756 0.00978281 0.0097245 1.63736e-05 0.00976171 1.72009e-07 272.524 
-0.29 -0.69 -0.416129 0.571801 0.0097758 0.00969758 1.06075e-05 0.00974746 1.71643e-07 272.707 
-0.27 -0.69 -0.13925 0.745396 0.00977661 0.00971146 2.17325e-07 0.00975693 1.71387e-07 273.379 
-0.31 -0.67 -0.270826 0.66437 0.00976525 0.00970451 7.08247e-06 0.00973758 1.71481e-07 272.687 
-0.29 -0.67 -0.437917 0.573353 0.00977633 0.00971853 1.26014e-05 0.00975086 1.71407e-07 273.177 
-0.41 -0.83 0.0761838 0.561858 0.00976021 0.00972912 -8.5895e-07 0.00974825 1.7163e-07 272.749 
-0.39 -0.83 -0.0444881 0.432294 0.00975454 0.00972288 1.25482e-05 0.00973342 1.71417e-07 272.673 
-0.37 -0.83 -0.185081 0.107215 0.00973994 0.00971583 8.41013e-06 0.00973694 1.71521e-07 272.605 
-0.35 -0.83 -0.182642 0.0635994 0.0097493 0.00971897 1.41885e-05 0.00973371 1.71362e-07 272.769 
-0.33 -0.83 -0.0856317 0.183634 0.00975216 0.00969831 1.22338e-05 0.00972079 1.70916e-07 273.118 
-0.31 -0.83 0.0108321 -0.409454 0.0097454 0.00969635 9.89662e-06 0.00972952 1.71307e-07 272.739 
-0.29 -0.83 -0.205809 0.157746 0.00976289 0.00972925 1.41142e-05 0.00976148 1.71458e-07 273.394 
-0.27 -0.83 -0.188207 0.441833 0.00977757 0.0097334 1.25274e-05 0.00976851 1.71483e-07 273.55 
-0.27 -0.67 -0.696275 0.513985 0.00975543 0.00970137 1.61177e-05 0.00974346 1.71511e-07 272.804 
-0.25 -0.67 -0.417444 0.789771 0.00976773 0.00970777 2.44074e-06 0.00975158 1.71606e-07 272.88 
-0.25 -0.81 -0.27359 0.255558 0.0097737 0.00971825 1.23476e-05 0.00975309 1.71395e-07 273.259 
-0.25 -0.79 -0.544469 0.231072 0.009773 0.00974275 1.56125e-05 0.00976024 1.7144e-07 273.387 
-0.35 -0.55 -0.269546 0.852808 0.00979675 0.00972499 5.08997e-06 0.00976123 1.71839e-07 272.78 
-0.39 -0.53 0.0206509 1.16484 0.00977521 0.00969604 7.81745e-07 0.00974782 1.71389e-07 273.12 
-0.37 -0.57 -0.272802 0.826103 0.00977228 0.00971287 4.95668e-06 0.00974579 1.71393e-07 273.057 
-0.41 -0.55 0.0775144 0.999693 0.00974473 0.00970668 -1.06779e-05 0.0097327 1.71466e-07 272.575 
-0.45 -0.53 0.200936 0.452134 0.00976972 0.00969607 -4.83471e-06 0.00972129 1.71137e-07 272.778 
-0.35 -0.57 -0.0681531 0.804603 0.00976564 0.0097102 2.6983e-05 0.00974126 1.71393e-07 272.931 
-0.39 -0.55 -0.336481 0.879464 0.00976173 0.00970405 1.39249e-05 0.0097494 1.71493e-07 272.999 
-0.43 -0.53 -0.222781 0.340858 0.00977914 0.00970229 2.63754e-06 0.00973822 1.71562e-07 272.577 
-0.47 -0.51 -0.303224 0.456367 0.00976989 0.00969138 -4.24878e-06 0.00972337 1.71377e-07 272.454 
-0.37 -0.55 -0.253241 0.706557 0.00975216 0.00968556 -1.79756e-07 0.00973091 1.71169e-07 272.997 
-0.41 -0.53 -0.234182 0.699311 0.00978152 0.00970517 2.69643e-06 0.00974259 1.71564e-07 272.696 
-0.45 -0.51 -0.518877 0.823523 0.00977674 0.00969019 2.50784e-06 0.00973101 1.71524e-07 272.435 
-0.37 -0.53 -0.254305 0.952906 0.0097793 0.00971324 -2.48256e-06 0.00975335 1.71736e-07 272.724 
-0.41 -0.51 -0.596414 0.579721 0.0097687 0.00970139 1.90277e-06 0.00973613 1.7146e-07 272.68 
-0.35 -0.53 -0.548546 0.865831 0.00975577 0.00970145 -5.58899e-06 0.00972513 1.71438e-07 272.408 
-0.39 -0.51 -0.577721 0.976798 0.00976978 0.00969072 -1.92049e-06 0.0097291 1.71413e-07 272.559 
-0.37 -0.51 -0.597167 1.16851 0.00977953 0.00971422 9.49971e-06 0.00974634 1.71679e-07 272.617 
-0.35 -0.51 -0.49499 0.850613 0.00977281 0.00969849 1.27265e-05 0.00972974 1.71381e-07 272.626 
-0.49 -0.65 0.0495427 0.364203 0.00976667 0.0097139 1.84432e-05 0.00974313 1.71325e-07 273.091 
-0.47 -0.65 -0.266664 0.298989 0.0097735 0.00972743 1.60568e-05 0.00975628 1.71818e-07 272.675 
-0.45 -0.65 -0.120264 0.31302 0.00976379 0.00972852 5.38551e-06 0.00975529 1.72017e-07 272.333 
-0.49 -0.63 -0.122586 0.417627 0.00975771 0.00971216 8.49387e-06 0.00974764 1.719e-07 272.305 
-0.43 -0.65 0.051902 0.769648 0.00975127 0.00970614 8.52742e-06 0.00973751 1.71354e-07 272.887 
-0.47 -0.63 -0.152723 0.539831 0.00976861 0.00972884 6.65644e-07 0.00976122 1.72076e-07 272.404 
-0.41 -0.65 0.0183705 0.320256 0.00976467 0.00970946 1.02207e-05 0.00973567 1.71396e-07 272.769 
-0.45 -0.63 -0.459202 0.414104 0.00978069 0.00972659 1.5483e-05 0.00976361 1.72045e-07 272.52 
-0.49 -0.61 -0.0616733 0.595174 0.00975726 0.00970575 -1.20853e-05 0.00974165 1.71717e-07 272.427 
-0.39 -0.65 0.0496917 0.145757 0.00975518 0.0097156 1.23033e-05 0.00973857 1.7137e-07 272.892 
-0.43 -0.63 -0.564167 0.470937 0.00978231 0.00971498 4.03118e-06 0.00975178 1.71492e-07 273.068 
-0.47 -0.61 -0.333547 0.588636 0.00976237 0.00972825 -8.88464e-07 0.00976097 1.71916e-07 272.652 
-0.37 -0.65 -0.564524 0.329699 0.00975689 0.00969048 -7.3673e-07 0.0097221 1.71099e-07 272.862 
-0.41 -0.63 -0.549087 0.39266 0.00977866 0.0096993 1.33954e-05 0.00974092 1.71324e-07 273.031 
-0.45 -0.61 -0.174698 0.67401 0.00977148 0.00972575 -1.12621e-05 0.00976244 1.7173e-07 272.987 
-0.49 -0.59 -0.0638073 0.590747 0.00975743 0.00969207 -1.80845e-05 0.0097402 1.71474e-07 272.771 
-0.35 -0.65 -0.623053 0.40266 0.00976809 0.00974773 1.19762e-05 0.00974668 1.71366e-07 273.126 
-0.39 -0.63 -0.50346 0.403586 0.00978664 0.0097241 1.81701e-05 0.00974607 1.71499e-07 272.896 
-0.43 -0.61 -0.04386 0.586653 0.00978222 0.00970533 1.12899e-05 0.00974922 1.71305e-07 273.294 
-0.47 -0.59 0.0673546 0.740623 0.00977563 0.00972671 -1.4768e-05 0.00976447 1.71778e-07 272.967 
-0.37 -0.63 -0.521192 0.659584 0.00976651 0.00970132 8.07289e-06 0.00973139 1.7134e-07 272.738 
-0.41 -0.61 -0.280291 0.269215 0.00977792 0.00970892 1.14872e-05 0.0097392 1.71202e-07 273.177 
-0.45 -0.59 -0.07153 0.161441 0.00977893 0.00971645 -5.4169e-06 0.00976487 1.71611e-07 273.245 
-0.49 -0.57 -0.0202834 0.515239 0.00978493 0.00970641 -2.34742e-05 0.00974571 1.71416e-07 273.019 
-0.35 -0.63 -0.631959 0.362044 0.00975938 0.00972361 1.00646e-05 0.0097319 1.71326e-07 272.775 
-0.39 -0.61 -0.258318 0.290429 0.00978581 0.00970711 1.30829e-05 0.00974252 1.71376e-07 272.994 
-0.43 -0.59 0.231916 0.590606 0.0097706 0.00969715 7.22092e-06 0.00973925 1.71557e-07 272.614 
-0.47 -0.57 -0.0765919 0.704205 0.00977099 0.00971765 -1.20275e-05 0.0097428 1.71408e-07 272.95 
-0.37 -0.61 -0.262766 0.644863 0.00979156 0.00971857 1.91942e-05 0.0097545 1.71416e-07 273.265 
-0.41 -0.59 0.45289 0.343249 0.00977352 0.0097071 4.22611e-06 0.00974369 1.71149e-07 273.388 
-0.45 -0.57 0.104293 0.127503 0.00976026 0.00969703 1.27854e-06 0.00973311 1.71389e-07 272.708 
-0.49 -0.55 -0.0879424 0.579227 0.00977262 0.00970503 -1.10286e-05 0.0097415 1.71574e-07 272.65 
-0.35 -0.61 -0.291002 0.514001 0.00978605 0.00971284 1.05218e-05 0.00974208 1.71318e-07 273.073 
-0.39 -0.59 0.231973 0.589127 0.00977654 0.00967778 6.29375e-06 0.00972834 1.71106e-07 273.025 
-0.43 -0.57 0.243157 0.372079 0.00976327 0.00968766 3.40862e-08 0.0097329 1.71167e-07 273.056 
-0.47 -0.55 0.0469966 0.641453 0.00977356 0.0096952 -5.78998e-06 0.00973053 1.71644e-07 272.231 
-0.33 -0.61 -0.641295 0.512979 0.0097833 0.00970859 2.20247e-05 0.00975332 1.71443e-07 273.189 
-0.37 -0.59 -0.0231911 0.557713 0.00978354 0.00974571 2.19815e-05 0.00976551 1.71668e-07 273.173 
-0.41 -0.57 -0.0243284 0.622258 0.00977898 0.00972126 1.78295e-05 0.0097483 1.71505e-07 272.949 
-0.45 -0.55 -0.0239583 0.0294597 0.00976482 0.00969456 8.90488e-07 0.0097199 1.71373e-07 272.364 
-0.49 -0.53 0.184594 0.605421 0.00976672 0.00969635 3.41833e-06 0.00973164 1.71337e-07 272.75 
-0.35 -0.59 -0.47869 0.852862 0.00978385 0.00969848 1.64776e-05 0.00973841 1.71638e-07 272.462 
-0.39 -0.57 -0.270345 0.800824 0.00976555 0.00968673 -1.27714e-06 0.00973211 1.71178e-07 273.017 
-0.43 -0.55 -0.110466 0.226782 0.00975984 0.00969554 8.45082e-06 0.0097362 1.71551e-07 272.537 
-0.47 -0.53 0.217418 0.333569 0.00975843 0.00968834 3.15545e-06 0.00971913 1.71169e-07 272.666 
-0.29 -0.57 -0.475975 0.422427 0.00976534 0.00969491 2.35731e-05 0.00973338 1.71282e-07 272.887 
-0.33 -0.55 -0.537494 0.964793 0.00980564 0.00972684 4.68354e-06 0.00975744 1.7166e-07 272.959 
-0.29 -0.61 -0.43751 0.728647 0.00976993 0.0097121 2.51032e-06 0.00974106 1.71569e-07 272.644 
-0.33 -0.59 -0.305925 0.957908 0.00977954 0.00971438 2.10067e-05 0.00975355 1.715e-07 273.104 
-0.27 -0.61 -0.536491 0.601251 0.00978245 0.00969681 1.98851e-05 0.00974792 1.716e-07 272.788 
-0.31 -0.59 -0.672013 0.821278 0.00978466 0.00974145 1.30736e-05 0.00975975 1.71686e-07 272.982 
-0.29 -0.59 -0.435058 0.175539 0.00979131 0.00970231 1.21064e-05 0.00974596 1.7145e-07 272.971 
-0.33 -0.57 -0.18072 0.883723 0.00977193 0.00972336 4.22921e-06 0.00973955 1.7142e-07 272.839 
-0.27 -0.59 -0.143208 0.848349 0.00977605 0.00969162 2.28723e-05 0.00973599 1.7116e-07 273.154 
-0.31 -0.57 -0.160037 0.766295 0.00977543 0.00973032 3.99094e-06 0.00975548 1.71606e-07 272.991 
-0.27 -0.57 -0.646268 0.676069 0.0097611 0.0096881 3.03894e-05 0.00973984 1.71474e-07 272.761 
-0.31 -0.55 -0.172664 0.967672 0.00978807 0.00970656 2.8072e-05 0.00975176 1.7133e-07 273.325 
-0.29 -0.55 -0.448719 0.591865 0.00977266 0.00969628 3.31608e-05 0.00973238 1.71153e-07 273.064 
-0.33 -0.53 -0.300686 1.04793 0.00975606 0.00971097 1.6347e-05 0.00972348 1.71091e-07 272.914 
-0.27 -0.55 -0.463391 0.449272 0.00976032 0.00968174 1.90173e-05 0.00971763 1.71368e-07 272.309 
-0.31 -0.53 -0.417381 0.807428 0.00976181 0.00969731 2.65783e-05 0.00973446 1.71172e-07 273.092 
-0.29 -0.53 -0.394939 0.73576 0.00979238 0.00969863 3.05951e-05 0.00974946 1.71377e-07 273.185 
-0.33 -0.51 -0.614531 0.909557 0.00976586 0.00969833 1.49352e-05 0.00973012 1.71138e-07 273.025 
-0.27 -0.53 -0.574381 0.625207 0.00979483 0.00968952 2.91898e-05 0.00974356 1.71332e-07 273.092 
-0.31 -0.51 -0.260977 0.6698 0.00976128 0.00969211 9.11481e-06 0.00972163 1.71177e-07 272.724 
-0.29 -0.51 -0.207756 0.820626 0.0097534 0.00968435 2.01441e-05 0.00972581 1.71148e-07 272.889 
-0.27 -0.51 -0.285659 1.00243 0.00977096 0.009697 3.52465e-05 0.00974136 1.71221e-07 273.208 
-0.33 -0.65 -0.553839 0.456916 0.00976995 0.00972044 1.79323e-05 0.00975011 1.7132e-07 273.295 
-0.31 -0.65 -0.439495 0.791961 0.00976368 0.00971059 1.75348e-05 0.0097506 1.71632e-07 272.812 
-0.29 -0.65 -0.417342 0.667491 0.0097475 0.00969992 2.06052e-05 0.00973624 1.71406e-07 272.77 
-0.33 -0.63 -0.507044 0.677847 0.0097597 0.00972971 2.1161e-05 0.00975453 1.71736e-07 272.757 
-0.27 -0.65 -0.479867 0.63475 0.00976964 0.0097202 1.19493e-05 0.00975435 1.71606e-07 272.958 
-0.31 -0.63 -0.640949 0.574427 0.00974689 0.00969795 1.5009e-05 0.00973806 1.71298e-07 272.992 
-0.25 -0.65 -0.716502 0.395849 0.00975649 0.00970296 7.15255e-06 0.00973863 1.71637e-07 272.469 
-0.29 -0.63 -0.870887 0.568482 0.0097703 0.00972072 1.08132e-05 0.00974751 1.71543e-07 272.868 
-0.27 -0.63 -0.649337 0.638494 0.00975069 0.00971063 8.22737e-06 0.00974634 1.71687e-07 272.606 
-0.31 -0.61 -0.705345 0.767579 0.00978694 0.00972782 1.83314e-05 0.00975766 1.71606e-07 273.051 
-0.49 -0.67 0.10306 0.474591 0.00978217 0.00972014 6.82457e-06 0.00975344 1.71385e-07 273.285 
-0.47 -0.67 0.102962 -0.218619 0.00976716 0.00971763 -1.21019e-07 0.00973986 1.71587e-07 272.583 
-0.45 -0.67 0.111917 0.839288 0.00976164 0.00973012 9.66642e-06 0.0097501 1.71771e-07 272.577 
-0.43 -0.67 -0.105801 0.252787 0.00977886 0.00972287 1.20349e-05 0.00974741 1.71713e-07 272.594 