ITEM: TIMESTEP
1070000
ITEM: NUMBER OF CELLS
5000
ITEM: BOX BOUNDS ss ss pp
-0.5 0.5
-1 1
-0.5 0.5
ITEM: CELLS xc yc f_U[*] f_V[*] f_Tau[1] f_Tau[2] f_Tau[3] f_Press[*] f_Mrho[*] f_Ttra[*] 
-0.49 -0.99 -0.048838 0.0969986 0.00976373 0.00973749 7.89901e-06 0.00975065 1.71511e-07 273.005 
-0.47 -0.99 -0.153379 0.0288806 0.00974972 0.00972013 6.38875e-06 0.00973906 1.71425e-07 272.818 
-0.45 -0.99 -0.262005 -0.011071 0.00975282 0.00972823 4.33496e-06 0.00974444 1.71424e-07 272.97 
-0.49 -0.97 -0.0438393 0.167974 0.00974657 0.00972523 9.79473e-06 0.00973532 1.71323e-07 272.875 
-0.43 -0.99 -0.268616 -0.0552975 0.00974694 0.00972092 3.85823e-06 0.0097389 1.7131e-07 272.997 
-0.47 -0.97 -0.0935888 0.0819334 0.00974885 0.00972311 1.30833e-05 0.00973954 1.71362e-07 272.932 
-0.41 -0.99 -0.0649758 -0.0844472 0.00974083 0.00972442 2.04652e-06 0.00973813 1.71286e-07 273.013 
-0.45 -0.97 -0.0426375 0.0267121 0.0097446 0.00973256 5.18485e-06 0.00974361 1.71425e-07 272.945 
-0.49 -0.95 0.0683562 0.120483 0.00973685 0.00971556 2.42774e-06 0.00973224 1.71252e-07 272.903 
-0.39 -0.99 -0.113295 0.0990759 0.00974392 0.00972762 2.78181e-06 0.00973754 1.71172e-07 273.179 
-0.43 -0.97 -0.00698373 0.0273534 0.00974585 0.00971969 3.31425e-06 0.00973788 1.7131e-07 272.968 
-0.47 -0.95 0.109132 0.0838239 0.00975065 0.00972651 1.49961e-06 0.00974011 1.71378e-07 272.922 
-0.37 -0.99 -0.143451 -0.0264532 0.00974155 0.00972738 8.83963e-06 0.00973758 1.71281e-07 273.006 
-0.41 -0.97 -0.186829 -0.204452 0.00974406 0.00972616 5.19355e-06 0.00973829 1.71374e-07 272.877 
-0.45 -0.95 0.168574 -0.0491067 0.00975764 0.00973628 6.40294e-06 0.00975429 1.71604e-07 272.959 
-0.49 -0.93 -0.0166964 0.061209 0.00976676 0.00972278 5.76949e-07 0.0097496 1.71535e-07 272.938 
-0.35 -0.99 -0.120741 -0.070034 0.00973603 0.0097131 3.77092e-06 0.00972189 1.71124e-07 272.816 
-0.39 -0.97 -0.0316549 0.0568263 0.00974187 0.00972508 6.73719e-06 0.00973998 1.71423e-07 272.847 
-0.43 -0.95 0.127449 0.0327652 0.00975777 0.00971734 6.73018e-06 0.00974425 1.71453e-07 272.919 
-0.47 -0.93 0.0230558 0.0396586 0.00975693 0.00972122 1.58829e-06 0.00974409 1.71504e-07 272.833 
-0.33 -0.99 -0.0714741 0.0204605 0.00973416 0.00973238 6.97446e-06 0.0097312 1.71262e-07 272.857 
-0.37 -0.97 -0.00407426 -0.0325399 0.00973904 0.00972765 4.59538e-06 0.00974056 1.71338e-07 272.998 
-0.41 -0.95 0.0290081 0.0147948 0.00975673 0.00972857 3.64298e-06 0.00974354 1.7153e-07 272.777 
-0.45 -0.93 -0.0531531 0.035587 0.00975515 0.00973165 6.53797e-06 0.00974632 1.7155e-07 272.823 
-0.49 -0.91 -0.00628293 0.168856 0.00977125 0.00972601 1.18276e-05 0.00975151 1.71467e-07 273.101 
-0.35 -0.97 -0.0256197 -0.0274878 0.00973911 0.0097164 1.03791e-05 0.00973177 1.71207e-07 272.961 
-0.39 -0.95 -0.180829 -0.00999719 0.00975335 0.00972404 7.96797e-06 0.00973794 1.7143e-07 272.779 
-0.43 -0.93 -0.0670646 0.10321 0.00975233 0.00972274 2.22995e-06 0.00973596 1.71377e-07 272.807 
-0.47 -0.91 -0.218559 0.0437503 0.00976558 0.00972382 6.92082e-06 0.00974534 1.71532e-07 272.823 
-0.33 -0.97 -0.109619 0.00567775 0.0097435 0.00972755 6.35408e-06 0.00974106 1.71478e-07 272.79 
-0.37 -0.95 -0.159826 -0.0509872 0.00975406 0.00972286 1.15107e-05 0.00974155 1.71304e-07 273.081 
-0.41 -0.93 -0.100812 0.0332049 0.00975121 0.00972262 9.80647e-06 0.00973145 1.71282e-07 272.832 
-0.45 -0.91 -0.0975814 0.0382381 0.00976513 0.00972527 5.74667e-06 0.00975041 1.71536e-07 272.959 
-0.49 -0.89 -0.0103572 0.1417 0.00977102 0.00972597 1.05528e-05 0.00974958 1.71455e-07 273.065 
-0.35 -0.95 -0.0849962 -0.00875137 0.00975331 0.00972026 3.38255e-06 0.00973907 1.71359e-07 272.924 
-0.39 -0.93 -0.00104987 -0.0365998 0.00974929 0.00972232 8.16573e-06 0.00973926 1.7155e-07 272.626 
-0.43 -0.91 -0.172446 0.0595074 0.00976181 0.00973002 8.98606e-06 0.00974285 1.71335e-07 273.068 
-0.47 -0.89 0.115772 0.138344 0.00977045 0.00973145 7.80781e-06 0.00974965 1.716e-07 272.837 
-0.37 -0.93 -0.0236918 -0.000761095 0.009756 0.00972593 2.93247e-06 0.00974619 1.71452e-07 272.974 
-0.41 -0.91 -0.0674737 -0.00303467 0.00976656 0.00971391 2.82614e-06 0.00973829 1.71313e-07 272.975 
-0.45 -0.89 -0.0433869 0.166376 0.00976293 0.00971931 4.6051e-06 0.00974432 1.71426e-07 272.964 
-0.49 -0.87 -0.0283865 0.182355 0.00975123 0.0097152 -5.60959e-07 0.00973218 1.71249e-07 272.906 
-0.35 -0.93 -0.26712 0.0102424 0.00975879 0.00972178 8.52801e-06 0.00973999 1.71444e-07 272.814 
-0.39 -0.91 -0.0799893 -0.0741586 0.0097716 0.00972859 1.1137e-05 0.00975355 1.71675e-07 272.826 
-0.43 -0.89 -0.106273 -0.0105309 0.00976819 0.00973604 6.30163e-06 0.00975162 1.71462e-07 273.112 
-0.47 -0.87 0.068199 0.124015 0.0097603 0.00973214 9.9274e-06 0.00974312 1.71382e-07 273 
-0.37 -0.91 -0.221739 0.193552 0.00975645 0.00972416 8.8093e-06 0.00974098 1.71601e-07 272.591 
-0.41 -0.89 -0.103919 -0.033449 0.00976143 0.00971162 4.88047e-06 0.00974141 1.71515e-07 272.741 
-0.45 -0.87 -0.0800056 0.182251 0.00976586 0.0097201 9.21358e-06 0.00974915 1.71471e-07 273.028 
-0.49 -0.85 -0.0578871 0.172571 0.00975392 0.00971491 -1.00046e-06 0.0097321 1.71203e-07 272.977 
-0.35 -0.91 -0.117005 0.115802 0.00974934 0.00972368 3.42301e-06 0.0097366 1.71425e-07 272.749 
-0.39 -0.89 -0.0651571 0.117113 0.00975444 0.00971765 9.8146e-06 0.00974292 1.71461e-07 272.869 
-0.43 -0.87 -0.0894352 0.113243 0.00975436 0.00973598 1.02595e-05 0.00974762 1.71523e-07 272.901 
-0.47 -0.85 -0.139544 0.213974 0.00975439 0.00972195 1.82858e-06 0.00974319 1.71345e-07 273.062 
-0.33 -0.91 -0.184086 -0.0267044 0.00975591 0.00972044 1.10431e-05 0.00974085 1.71401e-07 272.906 
-0.37 -0.89 -0.159398 0.0908457 0.00976501 0.00973508 1.46239e-05 0.00975767 1.71687e-07 272.922 
-0.41 -0.87 -0.192131 -0.0538318 0.00975872 0.00971323 7.39126e-06 0.00974072 1.71533e-07 272.693 
-0.45 -0.85 -0.111255 0.199886 0.00975993 0.0097184 7.19329e-06 0.00974345 1.71344e-07 273.07 
-0.35 -0.89 -0.233289 0.131655 0.00976848 0.00972227 9.12264e-06 0.00974221 1.71479e-07 272.82 
-0.39 -0.87 -0.294075 0.151434 0.00976862 0.00971713 4.90592e-06 0.00974675 1.71604e-07 272.749 
-0.43 -0.85 -0.195534 0.161773 0.00977162 0.00973819 6.71525e-06 0.00975007 1.71634e-07 272.793 
-0.37 -0.87 -0.340055 0.210932 0.00977142 0.00973048 6.45989e-06 0.00975537 1.71675e-07 272.877 
-0.41 -0.85 -0.176401 0.084493 0.00976905 0.00971641 8.82475e-06 0.00974496 1.71582e-07 272.733 
-0.35 -0.87 -0.283192 0.0951373 0.0097686 0.00972359 1.02646e-05 0.00974442 1.71453e-07 272.924 
-0.39 -0.85 -0.258187 0.31905 0.009765 0.00971803 3.12157e-06 0.0097473 1.71604e-07 272.765 
-0.33 -0.87 -0.332082 0.120452 0.00976406 0.00972286 1.24399e-05 0.00974577 1.71537e-07 272.828 
-0.37 -0.85 -0.256621 0.0257668 0.00976543 0.00972426 8.84659e-06 0.00974727 1.71504e-07 272.923 
-0.35 -0.85 -0.236351 0.156573 0.0097658 0.00972029 1.15369e-05 0.00974414 1.71404e-07 272.994 
-0.33 -0.85 -0.372398 0.352795 0.0097672 0.009726 1.26281e-05 0.00974467 1.71457e-07 272.924 
-0.31 -0.99 -0.0105055 -0.0399864 0.00973003 0.00971669 1.45444e-05 0.00972156 1.71193e-07 272.697 
-0.29 -0.99 -0.0770681 0.0329535 0.00973044 0.00971719 8.37112e-06 0.00972938 1.71187e-07 272.926 
-0.27 -0.99 -0.133935 0.0179003 0.00974399 0.00972668 7.91851e-06 0.00973618 1.71183e-07 273.123 
-0.31 -0.97 -0.356005 -0.014254 0.00974994 0.00972277 6.17447e-06 0.00973791 1.71381e-07 272.856 
-0.29 -0.97 -0.432814 0.200519 0.0097565 0.00972003 7.91549e-06 0.00974779 1.71489e-07 272.961 
-0.33 -0.95 -0.0779955 0.129196 0.00975137 0.0097267 1.00453e-05 0.00974011 1.71361e-07 272.95 
-0.27 -0.97 -0.310775 -0.11264 0.00974273 0.00971967 1.06304e-05 0.00973639 1.71326e-07 272.9 
-0.31 -0.95 -0.118213 0.182664 0.00974787 0.00972283 8.333e-06 0.00973258 1.71306e-07 272.826 
-0.29 -0.95 -0.0780072 0.10106 0.00974059 0.00971022 1.03161e-05 0.00972478 1.7121e-07 272.76 
-0.33 -0.93 -0.264116 0.152198 0.00975925 0.0097212 3.84669e-06 0.00973737 1.71341e-07 272.904 
-0.27 -0.95 -0.283559 -0.0920751 0.00974899 0.00972754 6.71037e-06 0.00973818 1.7134e-07 272.928 
-0.31 -0.93 -0.0853008 0.0442245 0.00976025 0.00972014 1.0167e-05 0.00974 1.71517e-07 272.699 
-0.29 -0.93 -0.164035 0.210509 0.0097649 0.009716 1.05177e-05 0.00974273 1.71487e-07 272.822 
-0.27 -0.93 -0.179723 0.133618 0.00976316 0.00972389 7.00845e-06 0.0097454 1.71531e-07 272.827 
-0.31 -0.91 -0.212683 0.126901 0.009757 0.00971916 9.69754e-06 0.00973947 1.71425e-07 272.83 
-0.29 -0.91 -0.25586 0.175845 0.00975626 0.00971698 2.08952e-06 0.00973444 1.71393e-07 272.74 
-0.33 -0.89 -0.250841 0.0222348 0.00975986 0.0097217 4.82057e-06 0.0097423 1.71405e-07 272.94 
-0.27 -0.91 -0.146114 0.15063 0.00975968 0.0097227 6.41641e-06 0.00974044 1.71523e-07 272.7 
-0.31 -0.89 -0.203967 0.17751 0.00976226 0.00972125 3.72817e-06 0.00974535 1.71488e-07 272.894 
-0.29 -0.89 -0.202721 0.0705462 0.00975888 0.00971553 9.13065e-06 0.00974111 1.71329e-07 273.028 
-0.27 -0.89 -0.30625 0.274131 0.0097519 0.00971968 1.05034e-05 0.00974294 1.71467e-07 272.861 
-0.31 -0.87 -0.485078 0.189777 0.00975885 0.00972003 7.59187e-06 0.00973923 1.71436e-07 272.805 
-0.29 -0.87 -0.448568 0.130603 0.00975534 0.00971037 1.01696e-05 0.00973817 1.71325e-07 272.953 
-0.27 -0.87 -0.444393 0.26661 0.00975681 0.00972058 1.38587e-05 0.00974314 1.71413e-07 272.951 
-0.31 -0.85 -0.395644 0.0470617 0.00976347 0.0097209 1.53557e-05 0.00974611 1.71461e-07 272.958 
-0.29 -0.85 -0.301083 0.186754 0.00975574 0.00970975 1.31861e-05 0.00974055 1.71402e-07 272.897 
-0.27 -0.85 -0.363898 0.204701 0.00975449 0.0097197 1.19065e-05 0.00974054 1.71202e-07 273.214 
-0.25 -0.99 -0.23327 0.0771687 0.00975017 0.00973762 1.27373e-05 0.00974675 1.71395e-07 273.081 
-0.25 -0.97 -0.203022 0.0538053 0.00974222 0.00973048 8.62157e-06 0.00973996 1.71423e-07 272.847 
-0.25 -0.95 -0.392026 0.06459 0.00975078 0.00973245 8.07984e-06 0.00974319 1.7141e-07 272.957 
-0.25 -0.93 -0.214549 0.0546118 0.00976005 0.00973399 1.05249e-05 0.00974538 1.71566e-07 272.77 
-0.25 -0.91 -0.276932 0.100829 0.00975951 0.00973243 9.49841e-06 0.00974849 1.71662e-07 272.706 
-0.25 -0.89 -0.343042 0.236844 0.00974924 0.00972563 1.40771e-05 0.00973864 1.71412e-07 272.828 
-0.25 -0.87 -0.442309 0.266014 0.00975253 0.00972053 1.61967e-05 0.00973988 1.71358e-07 272.948 
-0.25 -0.85 -0.286778 0.301074 0.0097616 0.00972075 1.21025e-05 0.00974652 1.71425e-07 273.026 
-0.25 -0.83 -0.388515 0.209483 0.00976355 0.00971733 8.68279e-06 0.00974528 1.71403e-07 273.027 
-0.33 -0.81 -0.140396 0.221414 0.00976193 0.00971197 1.09749e-05 0.00973992 1.71418e-07 272.853 
-0.31 -0.81 -0.246396 0.22805 0.00977722 0.00972209 1.29582e-05 0.0097518 1.71493e-07 273.067 
-0.29 -0.81 -0.228917 0.17792 0.00977938 0.00972335 8.62243e-06 0.0097537 1.71546e-07 273.036 
-0.27 -0.81 -0.325272 0.269997 0.0097764 0.00972125 1.3404e-05 0.00975516 1.71593e-07 273.002 
-0.31 -0.79 -0.249828 0.170242 0.00975915 0.00971829 5.18003e-06 0.00973844 1.71444e-07 272.77 
-0.29 -0.79 -0.29827 0.381316 0.00975958 0.00972076 1.24801e-05 0.00973985 1.71487e-07 272.742 
-0.33 -0.77 -0.298963 0.346335 0.00976852 0.00972372 1.59686e-05 0.00974551 1.71524e-07 272.841 
-0.27 -0.79 -0.398582 0.238997 0.00976183 0.00971426 1.07852e-05 0.0097402 1.71446e-07 272.817 
-0.31 -0.77 -0.293024 0.170605 0.00976345 0.00971414 1.12222e-05 0.00974117 1.71478e-07 272.793 
-0.29 -0.77 -0.264986 0.361823 0.00975925 0.00971789 8.4037e-06 0.00973997 1.7151e-07 272.708 
-0.27 -0.77 -0.283305 0.229139 0.00975797 0.00971286 8.28398e-06 0.00973848 1.71391e-07 272.856 
-0.31 -0.75 -0.199876 0.367841 0.00976904 0.00971851 1.13563e-05 0.00974852 1.716e-07 272.805 
-0.29 -0.75 -0.466807 0.320625 0.00976755 0.00972109 1.20111e-05 0.00974878 1.7158e-07 272.844 
-0.27 -0.75 -0.50827 0.517122 0.00976729 0.00970818 1.7851e-05 0.00973656 1.71357e-07 272.857 
-0.49 -0.83 0.0131993 0.263141 0.00975576 0.00971688 -2.48921e-07 0.00973646 1.71332e-07 272.893 
-0.47 -0.83 -0.105908 0.21169 0.00975774 0.0097176 1.79714e-06 0.00973916 1.71531e-07 272.652 
-0.45 -0.83 -0.127583 0.267718 0.0097573 0.00972246 -4.52912e-07 0.00974169 1.71415e-07 272.908 
-0.49 -0.81 -0.058272 0.306913 0.00976642 0.00972201 1.66191e-06 0.00974283 1.71493e-07 272.815 
-0.43 -0.83 -0.121912 0.256589 0.00975549 0.00972285 5.34335e-06 0.00973991 1.7141e-07 272.866 
-0.47 -0.81 -0.133611 0.269728 0.00976149 0.00971527 4.4694e-07 0.0097424 1.71507e-07 272.781 
-0.45 -0.81 -0.0705146 0.250152 0.00976571 0.00972417 2.5491e-06 0.00974435 1.71476e-07 272.885 
-0.49 -0.79 -0.0300472 0.494061 0.00975894 0.00972149 3.58238e-06 0.00973873 1.71381e-07 272.878 
-0.43 -0.81 -0.0473111 0.262176 0.00976119 0.00971312 4.61995e-06 0.00973917 1.71556e-07 272.613 
-0.47 -0.79 -0.017663 0.158645 0.00975959 0.00971875 -4.34168e-06 0.00974125 1.71448e-07 272.843 
-0.41 -0.81 -0.183221 0.169401 0.0097639 0.00972675 9.04816e-06 0.0097502 1.71584e-07 272.877 
-0.45 -0.79 -0.0681217 0.267319 0.00975898 0.00971697 2.74795e-06 0.00973598 1.7145e-07 272.692 
-0.49 -0.77 0.066974 0.39165 0.0097599 0.00972372 5.86091e-06 0.00974305 1.71409e-07 272.956 
-0.39 -0.81 -0.232218 0.216814 0.00976018 0.00971845 1.29758e-05 0.00974458 1.71559e-07 272.76 
-0.43 -0.79 -0.249723 0.332754 0.00976746 0.00971196 5.18625e-06 0.00973956 1.71551e-07 272.632 
-0.47 -0.77 0.0313508 0.298334 0.00975963 0.00972532 2.46476e-06 0.0097442 1.71471e-07 272.888 
-0.37 -0.81 -0.0421971 0.154865 0.00975797 0.00972009 1.00801e-05 0.00973888 1.71547e-07 272.619 
-0.41 -0.79 -0.262684 0.282867 0.00976925 0.00972633 8.20608e-06 0.00975202 1.71707e-07 272.733 
-0.45 -0.77 -0.192787 0.428153 0.00975948 0.00971225 -3.66468e-06 0.00973528 1.71437e-07 272.693 
-0.35 -0.81 -0.015456 0.193401 0.0097535 0.00971491 5.29218e-06 0.00973793 1.71436e-07 272.769 
-0.39 -0.79 -0.21382 0.131089 0.00976546 0.00971344 7.31209e-06 0.00974034 1.71546e-07 272.661 
-0.43 -0.77 -0.178504 0.394052 0.00975772 0.00971017 1.96153e-06 0.009734 1.71433e-07 272.663 
-0.37 -0.79 -0.274015 0.158377 0.00977351 0.00972102 1.10847e-05 0.00974515 1.71582e-07 272.738 
-0.41 -0.77 -0.170801 0.151803 0.00975935 0.00971528 9.11781e-06 0.00973728 1.71389e-07 272.825 
-0.35 -0.79 -0.218714 0.160632 0.00977376 0.00971792 1.22877e-05 0.00974714 1.71602e-07 272.763 
-0.39 -0.77 -0.10558 0.152077 0.00976044 0.00972203 1.18893e-05 0.00974622 1.71587e-07 272.761 
-0.43 -0.75 0.0232831 0.209407 0.00976846 0.00970867 -1.60528e-06 0.00974078 1.71462e-07 272.808 
-0.33 -0.79 -0.252564 0.308252 0.00976395 0.00971541 5.08747e-06 0.00973985 1.71422e-07 272.845 
-0.37 -0.77 -0.124629 0.236268 0.00976056 0.00971879 3.27367e-06 0.00974003 1.71483e-07 272.754 
-0.41 -0.75 -0.0462837 0.333661 0.00976995 0.00970647 6.60967e-06 0.00974383 1.71616e-07 272.648 
-0.35 -0.77 -0.320616 0.22964 0.00976784 0.00971489 7.25658e-06 0.00974157 1.71466e-07 272.823 
-0.39 -0.75 -0.193955 0.197491 0.00977444 0.00972552 8.53679e-06 0.00975159 1.71687e-07 272.753 
-0.49 -0.75 -0.00854767 0.275201 0.00976638 0.00972824 5.56684e-06 0.00975162 1.71517e-07 273.023 
-0.47 -0.75 -0.0207384 0.497339 0.00976462 0.00973065 4.58225e-06 0.00974513 1.71426e-07 272.986 
-0.45 -0.75 -0.0872882 0.498327 0.0097636 0.00971043 1.14526e-08 0.0097335 1.71439e-07 272.64 
-0.49 -0.73 -0.106816 0.435789 0.00977214 0.0097211 5.94235e-06 0.0097486 1.71484e-07 272.992 
-0.47 -0.73 -0.229219 0.464063 0.0097761 0.00973892 3.28735e-06 0.00975577 1.71496e-07 273.173 
-0.45 -0.73 -0.136134 0.318585 0.00977553 0.00971634 -4.23857e-06 0.00974245 1.71418e-07 272.924 
-0.49 -0.71 -0.0248462 0.596931 0.00977437 0.00972128 -5.70862e-07 0.00974697 1.71529e-07 272.875 
-0.43 -0.73 -0.100416 0.3517 0.00976522 0.00970205 3.05124e-06 0.0097362 1.7139e-07 272.794 
-0.47 -0.71 -0.0668822 0.485267 0.00977554 0.00973634 1.41378e-06 0.00975508 1.71471e-07 273.194 
-0.37 -0.75 -0.194591 0.160591 0.00976996 0.00972027 1.03e-05 0.0097421 1.71565e-07 272.681 
-0.41 -0.73 -0.191068 0.352363 0.00976817 0.00970275 4.31676e-07 0.00973834 1.71583e-07 272.547 
-0.45 -0.71 -0.0111793 0.242449 0.00976672 0.00971494 8.20335e-06 0.00974078 1.71324e-07 273.027 
-0.49 -0.69 0.042398 0.571307 0.00977052 0.00971772 -6.04927e-06 0.0097458 1.71445e-07 272.974 
-0.35 -0.75 -0.057982 0.256957 0.0097623 0.00971112 8.32297e-06 0.00973618 1.71393e-07 272.788 
-0.39 -0.73 -0.209628 0.18559 0.00977282 0.00971732 1.0442e-05 0.00974369 1.71517e-07 272.801 
-0.43 -0.71 -0.173197 0.377455 0.00976655 0.00970748 2.48121e-06 0.00973977 1.71557e-07 272.629 
-0.47 -0.69 0.133045 0.433547 0.00977127 0.00972699 5.04689e-06 0.00975061 1.71443e-07 273.113 
-0.37 -0.73 -0.29404 0.228181 0.0097744 0.00972569 1.07618e-05 0.00974773 1.71606e-07 272.773 
-0.41 -0.71 -0.124392 0.438333 0.00976854 0.00969607 -5.99896e-07 0.00973682 1.71664e-07 272.375 
-0.45 -0.69 -0.0295112 0.386346 0.00977792 0.00971404 7.81739e-06 0.00974818 1.71509e-07 272.939 
-0.35 -0.73 -0.51359 0.3639 0.00977408 0.00971191 1.04847e-05 0.00974661 1.71604e-07 272.745 
-0.39 -0.71 -0.209887 0.217854 0.00976845 0.00971858 1.25947e-06 0.00974156 1.71543e-07 272.701 
-0.43 -0.69 -0.0986545 0.426543 0.00977832 0.00971695 7.80582e-06 0.00975178 1.71746e-07 272.663 
-0.33 -0.73 -0.349568 0.24182 0.00977311 0.00970855 1.38902e-05 0.00974166 1.71583e-07 272.64 
-0.37 -0.71 -0.137508 0.20996 0.00977238 0.00971932 1.25696e-05 0.00974768 1.71603e-07 272.776 
-0.41 -0.69 -0.122838 0.347616 0.00976997 0.00970072 1.07751e-06 0.00973644 1.71594e-07 272.477 
-0.35 -0.71 -0.252881 0.49884 0.00977126 0.00970756 9.55802e-06 0.00974588 1.71557e-07 272.8 
-0.39 -0.69 -0.136605 0.381627 0.00976506 0.00970718 4.74752e-06 0.00973719 1.71438e-07 272.744 
-0.37 -0.69 -0.329895 0.272614 0.00976399 0.0097151 9.47314e-06 0.00974234 1.71536e-07 272.733 
-0.35 -0.69 -0.287222 0.506532 0.00976391 0.00970501 1.20062e-05 0.00973514 1.71402e-07 272.745 
-0.35 -0.67 -0.280211 0.397748 0.00977136 0.00971493 1.13611e-05 0.00974372 1.71476e-07 272.868 
-0.33 -0.67 -0.419074 0.569146 0.00975726 0.0097045 8.29667e-06 0.00973896 1.71493e-07 272.707 
-0.33 -0.75 -0.11901 0.30898 0.0097624 0.00971551 1.03846e-05 0.00973783 1.71416e-07 272.799 
-0.31 -0.73 -0.438403 0.464186 0.00976907 0.00972321 1.09122e-05 0.00974984 1.71574e-07 272.883 
-0.29 -0.73 -0.394755 0.473321 0.00977287 0.0097144 1.28234e-05 0.00974975 1.71518e-07 272.97 
-0.33 -0.71 -0.47351 0.172147 0.00976895 0.0097123 1.396e-05 0.00974321 1.71503e-07 272.811 
-0.27 -0.73 -0.49932 0.562006 0.00976653 0.00971519 1.79293e-05 0.00974506 1.71445e-07 272.955 
-0.31 -0.71 -0.343817 0.507849 0.00976832 0.00972379 1.43591e-05 0.00974807 1.7153e-07 272.903 
-0.29 -0.71 -0.434752 0.446925 0.009761 0.00970819 1.68692e-05 0.00974051 1.71332e-07 273.007 
-0.33 -0.69 -0.269828 0.289156 0.00977528 0.00971408 6.80501e-06 0.0097482 1.71675e-07 272.676 
-0.27 -0.71 -0.355748 0.462891 0.00976617 0.00971292 1.2256e-05 0.00974147 1.71333e-07 273.032 
-0.31 -0.69 -0.518118 0.494883 0.00977864 0.00971729 1.59051e-05 0.00975028 1.71595e-07 272.862 
-0.29 -0.69 -0.490872 0.57309 0.00977706 0.00971135 1.91907e-05 0.00974839 1.71505e-07 272.952 
-0.27 -0.69 -0.547469 0.378282 0.00977312 0.00971752 1.4928e-05 0.00974404 1.71376e-07 273.035 
-0.31 -0.67 -0.455234 0.556902 0.00975565 0.00971318 1.29294e-05 0.00973772 1.71446e-07 272.747 
-0.29 -0.67 -0.432876 0.467951 0.00976276 0.00971156 1.67447e-05 0.00974075 1.71294e-07 273.073 
-0.41 -0.83 -0.179228 0.068075 0.00975653 0.00972354 1.00695e-05 0.00974119 1.71532e-07 272.708 
-0.39 -0.83 -0.155365 0.296516 0.0097556 0.00972057 4.82029e-06 0.0097364 1.7147e-07 272.672 
-0.37 -0.83 -0.201155 0.222183 0.00975215 0.00971942 4.55909e-06 0.00973677 1.71336e-07 272.895 
-0.35 -0.83 -0.313922 0.0981854 0.0097577 0.00971603 1.55756e-05 0.00973767 1.71422e-07 272.784 
-0.33 -0.83 -0.170428 0.321935 0.00975817 0.00972537 1.33807e-05 0.00974029 1.71319e-07 273.021 
-0.31 -0.83 -0.120032 -0.0625068 0.00975255 0.00971244 1.80542e-05 0.00974013 1.71452e-07 272.806 
-0.29 -0.83 -0.268388 0.222466 0.00975941 0.00972009 1.59711e-05 0.00974543 1.71342e-07 273.13 
-0.27 -0.83 -0.278735 0.31359 0.00976109 0.00972016 7.61362e-06 0.00974673 1.7141e-07 273.057 
-0.27 -0.67 -0.444243 0.519011 0.00976267 0.00972024 1.81644e-05 0.00974252 1.71384e-07 272.981 
-0.25 -0.67 -0.505632 0.423313 0.00976869 0.0097156 1.22982e-05 0.00974862 1.71354e-07 273.199 
-0.25 -0.81 -0.290748 0.341252 0.00976314 0.00971547 7.58659e-06 0.00974372 1.71406e-07 272.979 
-0.25 -0.79 -0.28803 0.240815 0.00976867 0.00972182 2.02637e-05 0.00974453 1.71444e-07 272.942 
-0.35 -0.55 -0.225605 0.777354 0.00978285 0.00970796 6.16226e-06 0.00974538 1.71459e-07 272.941 
-0.39 -0.53 -0.26265 0.855358 0.0097774 0.00969204 5.30401e-06 0.0097374 1.71442e-07 272.744 
-0.37 -0.57 -0.296632 0.750164 0.00976993 0.00970311 1.0835e-05 0.009744 1.71315e-07 273.132 
-0.41 -0.55 -0.212804 0.928625 0.00976248 0.00969814 7.35366e-06 0.00973694 1.714e-07 272.799 
-0.45 -0.53 -0.100058 0.578819 0.00976156 0.00969578 -4.25578e-06 0.0097283 1.71305e-07 272.708 
-0.35 -0.57 -0.24652 0.734635 0.00977767 0.00970101 1.69499e-05 0.00974428 1.7149e-07 272.861 
-0.39 -0.55 -0.299759 0.69504 0.00976609 0.00969103 4.0397e-06 0.00973815 1.71387e-07 272.854 
-0.43 -0.53 -0.198047 0.901119 0.0097687 0.00969258 2.7175e-06 0.0097331 1.7144e-07 272.628 
-0.47 -0.51 -0.0793868 0.79498 0.00977312 0.00970299 -2.44163e-06 0.00974157 1.71526e-07 272.727 
-0.37 -0.55 -0.252586 0.737401 0.00976938 0.00969534 9.17556e-06 0.00973988 1.7129e-07 273.057 
-0.41 -0.53 -0.257632 0.736219 0.00977503 0.00969939 5.16115e-06 0.00973761 1.71461e-07 272.72 
-0.45 -0.51 -0.290193 0.730561 0.00976975 0.00969305 1.2286e-06 0.00973612 1.7145e-07 272.695 
-0.37 -0.53 -0.286128 0.737398 0.00977974 0.00969714 -6.3888e-07 0.0097413 1.7152e-07 272.73 
-0.41 -0.51 -0.294181 0.819522 0.00976383 0.00969819 -8.39081e-07 0.00973393 1.71371e-07 272.76 
-0.35 -0.53 -0.370646 0.755505 0.00977601 0.0097043 9.05652e-06 0.00974288 1.71481e-07 272.836 
-0.39 -0.51 -0.377324 0.84062 0.0097719 0.00969238 -1.27569e-06 0.00973378 1.71414e-07 272.688 
-0.37 -0.51 -0.364214 0.720863 0.00977203 0.00969143 3.50428e-06 0.00973152 1.71309e-07 272.792 
-0.35 -0.51 -0.404389 0.847737 0.00977155 0.00969828 1.03461e-05 0.00972966 1.7135e-07 272.675 
-0.49 -0.65 -0.0507034 0.483074 0.00977435 0.0097214 5.88701e-06 0.00974939 1.7149e-07 273.003 
-0.47 -0.65 -0.087486 0.395061 0.00977099 0.00971442 -6.41653e-07 0.00974743 1.71466e-07 272.988 
-0.45 -0.65 -0.0482797 0.607112 0.00976417 0.00971595 7.07554e-06 0.00974477 1.71576e-07 272.738 
-0.49 -0.63 0.0242745 0.443068 0.00976776 0.00972473 2.21346e-06 0.00975055 1.71702e-07 272.699 
-0.43 -0.65 0.000851957 0.593461 0.00975893 0.00970161 5.18364e-06 0.00973751 1.71447e-07 272.739 
-0.47 -0.63 0.0190939 0.493659 0.00976216 0.00970657 2.97037e-06 0.00974007 1.71511e-07 272.71 
-0.41 -0.65 -0.00928462 0.57192 0.00976377 0.00970622 9.12579e-06 0.00973854 1.71471e-07 272.731 
-0.45 -0.63 -0.0304079 0.584295 0.00977074 0.00971764 7.67366e-06 0.00974818 1.71607e-07 272.783 
-0.49 -0.61 -0.0252018 0.543584 0.00975677 0.00971204 -4.09429e-06 0.00974073 1.71395e-07 272.912 
-0.39 -0.65 -0.116563 0.445706 0.00976011 0.00971408 8.37313e-06 0.00973843 1.71308e-07 272.987 
-0.43 -0.63 -0.0708834 0.594034 0.0097745 0.0097072 7.04622e-06 0.00974214 1.71319e-07 273.074 
-0.47 -0.61 -0.126577 0.440224 0.00976312 0.0097118 6.98602e-06 0.00974221 1.71426e-07 272.905 
-0.37 -0.65 -0.238691 0.445345 0.00975788 0.00969975 4.01238e-06 0.00972671 1.71115e-07 272.965 
-0.41 -0.63 -0.110786 0.633584 0.00976861 0.0096956 2.88467e-06 0.00973618 1.71368e-07 272.828 
-0.45 -0.61 -0.0866308 0.628494 0.00976257 0.00971036 -3.72546e-06 0.00973855 1.71386e-07 272.866 
-0.49 -0.59 0.0170132 0.493817 0.009772 0.00970686 -6.48188e-06 0.00974777 1.71614e-07 272.762 
-0.35 -0.65 -0.317428 0.455003 0.0097673 0.00971262 1.15722e-05 0.00973888 1.71405e-07 272.844 
-0.39 -0.63 -0.106034 0.528322 0.00977695 0.00971786 1.23072e-05 0.00974805 1.71528e-07 272.906 
-0.43 -0.61 -0.0158272 0.658499 0.0097692 0.00970941 3.98924e-06 0.00974065 1.7137e-07 272.95 
-0.47 -0.59 0.0947376 0.535963 0.00977938 0.00971168 -5.6559e-06 0.00974771 1.71506e-07 272.931 
-0.37 -0.63 -0.220457 0.477095 0.00976688 0.00970115 1.07075e-05 0.00973393 1.71273e-07 272.917 
-0.41 -0.61 -0.132787 0.610032 0.00977107 0.00969853 9.88163e-06 0.00973564 1.7129e-07 272.937 
-0.45 -0.59 0.0472107 0.49758 0.00977904 0.00971152 2.34676e-06 0.00975012 1.71485e-07 273.033 
-0.49 -0.57 -0.0732861 0.475993 0.00977854 0.00971149 -4.08964e-06 0.00974847 1.71513e-07 272.941 
-0.35 -0.63 -0.358239 0.568965 0.00975907 0.00970044 1.22492e-05 0.00973045 1.71258e-07 272.843 
-0.39 -0.61 -0.14201 0.493529 0.00976868 0.00970637 7.50981e-06 0.00973906 1.7136e-07 272.922 
-0.43 -0.59 -0.0617619 0.766384 0.00977066 0.0097015 5.30128e-06 0.0097447 1.71537e-07 272.799 
-0.47 -0.57 -0.110372 0.474584 0.00976936 0.00970496 -5.55492e-06 0.00973533 1.71347e-07 272.838 
-0.37 -0.61 -0.188851 0.662983 0.00977183 0.00970646 1.33205e-05 0.00973964 1.71483e-07 272.743 
-0.41 -0.59 -0.111524 0.655844 0.00977509 0.00969947 4.80176e-06 0.00973662 1.71374e-07 272.831 
-0.45 -0.57 -0.133682 0.649051 0.00976912 0.00970274 2.49226e-06 0.0097379 1.71373e-07 272.868 
-0.49 -0.55 -0.0601679 0.622761 0.00975405 0.00970626 -6.97101e-06 0.00973285 1.71293e-07 272.855 
-0.35 -0.61 -0.201473 0.606766 0.00977022 0.00969949 1.22903e-05 0.00973262 1.71344e-07 272.767 
-0.39 -0.59 -0.149663 0.584337 0.00977163 0.00969451 9.50542e-06 0.00973693 1.71339e-07 272.896 
-0.43 -0.57 -0.0217782 0.784754 0.00977303 0.00970025 6.34808e-06 0.00974113 1.71399e-07 272.918 
-0.47 -0.55 -0.183668 0.648092 0.00976343 0.00969536 9.46676e-08 0.00973447 1.7142e-07 272.698 
-0.33 -0.61 -0.376754 0.581716 0.0097637 0.00970025 1.80434e-05 0.00973415 1.7126e-07 272.944 
-0.37 -0.59 -0.195249 0.653433 0.00977365 0.00971289 1.95665e-05 0.00974668 1.71511e-07 272.894 
-0.41 -0.57 -0.102091 0.696404 0.00976618 0.00969807 1.15434e-05 0.00973637 1.71261e-07 273.004 
-0.45 -0.55 -0.216591 0.534052 0.00976243 0.00970236 3.37738e-06 0.00973231 1.71293e-07 272.84 
-0.49 -0.53 0.031054 0.689134 0.0097632 0.00969786 -4.22687e-06 0.00973748 1.71317e-07 272.946 
-0.35 -0.59 -0.367138 0.701135 0.0097643 0.00969315 1.48357e-05 0.00972644 1.71306e-07 272.654 
-0.39 -0.57 -0.23052 0.723606 0.00976701 0.00968851 1.0554e-05 0.00973346 1.7118e-07 273.051 
-0.43 -0.55 -0.22452 0.653036 0.00976088 0.00969423 9.26403e-06 0.00973352 1.71373e-07 272.745 
-0.47 -0.53 -0.0269491 0.625215 0.0097558 0.00969727 -1.5705e-07 0.00972732 1.71224e-07 272.81 
-0.29 -0.57 -0.552767 0.710609 0.00977428 0.00971476 1.82408e-05 0.00974823 1.71469e-07 273.006 
-0.33 -0.55 -0.436321 0.858901 0.00978329 0.0097089 9.47674e-06 0.00974907 1.71461e-07 273.042 
-0.29 -0.61 -0.371972 0.597845 0.00976855 0.00971917 1.11671e-05 0.00974394 1.71579e-07 272.71 
-0.33 -0.59 -0.368591 0.835051 0.00976536 0.00970509 1.39909e-05 0.00973708 1.71319e-07 272.932 
-0.27 -0.61 -0.416016 0.572318 0.00977776 0.00971137 1.40719e-05 0.00974433 1.71544e-07 272.776 
-0.31 -0.59 -0.463265 0.59317 0.00976887 0.00971158 1.11917e-05 0.0097387 1.71392e-07 272.86 
-0.29 -0.59 -0.43799 0.521259 0.00977575 0.00972098 1.03835e-05 0.00974542 1.7153e-07 272.829 
-0.33 -0.57 -0.36473 0.764095 0.0097806 0.00971335 9.21755e-06 0.00974785 1.7139e-07 273.12 
-0.27 -0.59 -0.491898 0.685961 0.00976895 0.0097059 1.34764e-05 0.00973876 1.71475e-07 272.731 
-0.31 -0.57 -0.377045 0.680589 0.00977987 0.00970846 6.33683e-06 0.00974514 1.71486e-07 272.891 
-0.27 -0.57 -0.63947 0.675063 0.00976735 0.00970496 2.33103e-05 0.00974532 1.71517e-07 272.846 
-0.31 -0.55 -0.424537 0.889773 0.00977508 0.00971029 1.80814e-05 0.00974534 1.71439e-07 272.972 
-0.29 -0.55 -0.531532 0.680936 0.00976324 0.00969761 2.13602e-05 0.0097323 1.71211e-07 272.97 
-0.33 -0.53 -0.276908 1.07273 0.00977485 0.00969708 1.29403e-05 0.0097384 1.71333e-07 272.946 
-0.27 -0.55 -0.376326 0.575158 0.00976643 0.00971146 2.07559e-05 0.00974084 1.71408e-07 272.896 
-0.31 -0.53 -0.39432 0.79332 0.00977366 0.00970546 2.28808e-05 0.00974298 1.7151e-07 272.792 
-0.29 -0.53 -0.300795 0.653558 0.00978325 0.0097023 1.91079e-05 0.00974664 1.7148e-07 272.942 
-0.33 -0.51 -0.283542 0.931537 0.00976838 0.00969088 1.67601e-05 0.00973089 1.71152e-07 273.023 
-0.27 -0.53 -0.492067 0.727641 0.00977964 0.00970968 2.23451e-05 0.00974189 1.71475e-07 272.818 
-0.31 -0.51 -0.291855 0.855141 0.00977102 0.00970558 1.72902e-05 0.00973458 1.71342e-07 272.824 
-0.29 -0.51 -0.446819 0.81011 0.00976381 0.00969971 2.31337e-05 0.00973786 1.71443e-07 272.756 
-0.27 -0.51 -0.590827 0.944174 0.0097617 0.00970325 2.68989e-05 0.00973709 1.71363e-07 272.862 
-0.33 -0.65 -0.349185 0.473021 0.0097666 0.00970705 1.76796e-05 0.0097363 1.7131e-07 272.925 
-0.31 -0.65 -0.245699 0.569534 0.00976476 0.00971432 1.33854e-05 0.0097409 1.71362e-07 272.97 
-0.29 -0.65 -0.404261 0.530161 0.00975845 0.00970439 1.31477e-05 0.0097337 1.71234e-07 272.972 
-0.33 -0.63 -0.310577 0.493386 0.00976396 0.00971106 9.44045e-06 0.00974039 1.71381e-07 272.926 
-0.27 -0.65 -0.450845 0.503316 0.00976674 0.00972294 1.28943e-05 0.00974547 1.71476e-07 272.917 
-0.31 -0.63 -0.507187 0.654717 0.00976187 0.00970621 1.81398e-05 0.0097383 1.71285e-07 273.02 
-0.25 -0.65 -0.571866 0.462439 0.00976242 0.00971504 1.4801e-05 0.0097404 1.7144e-07 272.832 
-0.29 -0.63 -0.533584 0.487442 0.00976705 0.00971774 1.35614e-05 0.00974332 1.71472e-07 272.862 
-0.27 -0.63 -0.49489 0.587821 0.00975686 0.00971458 1.52992e-05 0.00973589 1.71432e-07 272.718 
-0.31 -0.61 -0.43723 0.627819 0.00976872 0.00971162 1.45546e-05 0.00974323 1.7153e-07 272.768 
-0.49 -0.67 0.0561189 0.49451 0.00976732 0.00971576 -5.94056e-06 0.00974087 1.71452e-07 272.826 
-0.47 -0.67 0.0684106 0.390514 0.00976825 0.00972147 2.82933e-07 0.00974542 1.71497e-07 272.883 
-0.45 -0.67 0.135654 0.537088 0.00976838 0.00971475 4.07494e-06 0.00974657 1.71519e-07 272.879 
-0.43 -0.67 -0.0862509 0.572929 0.0097721 0.00970963 5.29697e-06 0.00974494 1.71591e-07 272.718 