ITEM: TIMESTEP
832000
ITEM: NUMBER OF CELLS
5000
ITEM: BOX BOUNDS ss ss pp
-0.5 0.5
-1 1
-0.5 0.5
ITEM: CELLS xc yc f_U[*] f_V[*] f_Tau[1] f_Tau[2] f_Tau[3] f_Press[*] f_Mrho[*] f_Ttra[*] 
-0.49 -0.99 -0.242743 0.14863 0.0097802 0.00974217 1.72738e-05 0.00977263 1.71878e-07 273.037 
-0.47 -0.99 -0.198568 -0.183848 0.00976123 0.0097238 -2.72129e-06 0.00974617 1.71466e-07 272.952 
-0.45 -0.99 -0.375232 0.0657313 0.00974439 0.00973714 1.25422e-05 0.00974512 1.71432e-07 272.976 
-0.49 -0.97 -0.00545815 0.133403 0.00971353 0.00973444 2.76732e-05 0.00972223 1.71064e-07 272.922 
-0.43 -0.99 -0.449497 0.133002 0.00972036 0.00972596 9.80569e-06 0.00974161 1.71235e-07 273.193 
-0.47 -0.97 -0.206286 0.0618163 0.00969802 0.00972403 2.24696e-05 0.00972471 1.71314e-07 272.592 
-0.41 -0.99 -0.293568 -0.0626414 0.00970341 0.00971779 2.62543e-06 0.00972445 1.71081e-07 272.957 
-0.45 -0.97 0.00237252 0.099442 0.00970764 0.00974088 7.93265e-06 0.00973129 1.7142e-07 272.608 
-0.49 -0.95 0.263492 -0.0202015 0.00970845 0.00972004 1.77435e-06 0.00972232 1.71152e-07 272.783 
-0.39 -0.99 -0.191252 -0.379725 0.00971043 0.00973188 -1.57942e-05 0.00971933 1.70571e-07 273.629 
-0.43 -0.97 -0.10339 0.192675 0.00973213 0.00973 6.7667e-06 0.00973675 1.71175e-07 273.152 
-0.47 -0.95 0.287966 0.351042 0.00973479 0.00973298 1.31064e-05 0.00973227 1.71683e-07 272.218 
-0.37 -0.99 -0.0504396 0.211715 0.00971863 0.00971762 1.25957e-05 0.00972118 1.7096e-07 273.057 
-0.41 -0.97 -0.319134 -0.00738663 0.00973273 0.00973483 1.24721e-06 0.00973967 1.70965e-07 273.569 
-0.45 -0.95 0.158948 -0.194943 0.00975646 0.00975642 1.79895e-05 0.00976348 1.71934e-07 272.692 
-0.49 -0.93 0.117001 -0.223883 0.00974819 0.00971499 5.42971e-06 0.00973898 1.71389e-07 272.874 
-0.35 -0.99 -0.0968278 -0.104817 0.00969855 0.00966073 7.1118e-06 0.00967708 1.70579e-07 272.426 
-0.39 -0.97 0.0061405 -0.31424 0.00971014 0.00971945 1.61003e-05 0.00972255 1.71146e-07 272.8 
-0.43 -0.95 0.270792 0.393706 0.00975252 0.00972296 4.32789e-06 0.00973754 1.71304e-07 272.968 
-0.47 -0.93 0.28677 0.172469 0.00976462 0.00975118 2.65788e-07 0.00976267 1.71729e-07 272.995 
-0.33 -0.99 0.0158889 0.136311 0.00970107 0.00970622 1.49333e-05 0.00970605 1.7079e-07 272.905 
-0.37 -0.97 -0.148406 -0.119096 0.00969156 0.00971035 2.30909e-05 0.009699 1.70763e-07 272.749 
-0.41 -0.95 0.0681618 -0.19757 0.00975022 0.00972285 7.62e-06 0.00973838 1.7138e-07 272.87 
-0.45 -0.93 0.379053 0.0787035 0.00975137 0.0097448 -1.04865e-05 0.00973366 1.71468e-07 272.599 
-0.49 -0.91 0.0310748 -0.342545 0.00978537 0.00974175 2.01331e-06 0.00976877 1.71249e-07 273.932 
-0.35 -0.97 -0.0799784 -0.180167 0.00969753 0.00968077 4.31248e-06 0.00968955 1.70392e-07 273.077 
-0.39 -0.95 0.0512629 -0.569312 0.0097477 0.00972481 1.85885e-05 0.00972486 1.71131e-07 272.888 
-0.43 -0.93 0.472474 0.185087 0.00975496 0.009713 6.66923e-06 0.00971494 1.70867e-07 273.032 
-0.47 -0.91 -0.25725 0.0694961 0.00977267 0.00974274 -4.50341e-06 0.00975234 1.71747e-07 272.678 
-0.33 -0.97 -0.0989225 -0.102755 0.00971244 0.00969504 2.51821e-06 0.00970869 1.71153e-07 272.4 
-0.37 -0.95 -0.0637707 0.256606 0.0097602 0.00971091 2.82736e-05 0.00973688 1.71229e-07 273.069 
-0.41 -0.93 0.355727 0.10341 0.00975034 0.00973184 3.36316e-05 0.00973015 1.71099e-07 273.088 
-0.45 -0.91 -0.153642 -0.109069 0.00977705 0.00974198 1.14612e-05 0.00973659 1.71432e-07 272.738 
-0.49 -0.89 -0.219603 -0.0988307 0.00980918 0.00975358 6.15523e-06 0.00977059 1.71554e-07 273.496 
-0.35 -0.95 -0.119842 -0.174069 0.0097506 0.00969613 3.65033e-06 0.00972891 1.71559e-07 272.321 
-0.39 -0.93 -0.13837 -0.0610499 0.00973476 0.00970883 1.29044e-05 0.00970929 1.70966e-07 272.714 
-0.43 -0.91 -0.147178 0.0661076 0.00974653 0.00970306 1.40201e-05 0.00971645 1.7079e-07 273.197 
-0.47 -0.89 -0.0674845 0.0795185 0.00979093 0.00974948 8.83739e-06 0.00976057 1.71939e-07 272.603 
-0.37 -0.93 -0.117053 0.0251582 0.00975809 0.00970328 -4.06609e-07 0.00973196 1.71235e-07 272.922 
-0.41 -0.91 -0.37336 0.640468 0.00976549 0.00971716 1.33425e-05 0.00973579 1.71538e-07 272.547 
-0.45 -0.89 -0.286336 -0.150232 0.00977402 0.00971737 3.45871e-06 0.00973602 1.71189e-07 273.108 
-0.49 -0.87 0.0112249 -0.126358 0.00974813 0.00973148 -1.12077e-06 0.0097308 1.71417e-07 272.599 
-0.35 -0.93 -0.498074 0.303769 0.00977291 0.0097128 1.57383e-05 0.00973097 1.71335e-07 272.736 
-0.39 -0.91 -0.434111 -0.101919 0.00978428 0.00973136 1.65341e-05 0.00975575 1.71545e-07 273.095 
-0.43 -0.89 -0.464428 0.396394 0.00979261 0.00971993 2.06099e-05 0.00976746 1.71506e-07 273.484 
-0.47 -0.87 0.0313655 0.340534 0.0097492 0.00974952 1.01965e-05 0.00974452 1.71548e-07 272.775 
-0.37 -0.91 -0.194025 0.0822801 0.00976057 0.00970347 1.1646e-05 0.00973526 1.71534e-07 272.539 
-0.41 -0.89 -0.479897 0.750228 0.00978621 0.00970451 4.12244e-06 0.00975372 1.71803e-07 272.628 
-0.45 -0.87 -0.424455 0.118479 0.00976592 0.00970439 8.83383e-06 0.00975318 1.71657e-07 272.844 
-0.49 -0.85 -0.0254414 -0.190729 0.00976812 0.00971633 -4.62605e-06 0.00973633 1.71597e-07 272.468 
-0.35 -0.91 -0.223144 0.471247 0.00975293 0.00970895 -1.42624e-06 0.00972059 1.71142e-07 272.752 
-0.39 -0.89 -0.503204 0.0480744 0.00978126 0.00972849 2.56557e-05 0.00976567 1.71706e-07 273.116 
-0.43 -0.87 -0.335399 0.385928 0.00975999 0.00973154 1.72512e-05 0.00976022 1.71766e-07 272.869 
-0.47 -0.85 -0.0187773 0.341844 0.00979343 0.00974776 1.63622e-05 0.0097749 1.71828e-07 273.18 
-0.33 -0.91 -0.549758 0.247506 0.00976807 0.00970659 5.27999e-06 0.0097248 1.71369e-07 272.508 
-0.37 -0.89 -0.420987 -0.351757 0.00977978 0.00972256 2.20416e-05 0.0097573 1.71559e-07 273.116 
-0.41 -0.87 -0.330928 0.795196 0.00976402 0.00971679 1.48405e-05 0.00975469 1.71633e-07 272.925 
-0.45 -0.85 -0.147657 0.313742 0.00978296 0.00971076 1.59995e-05 0.00974916 1.71428e-07 273.096 
-0.35 -0.89 -0.457302 0.722727 0.00977961 0.00971377 2.78113e-06 0.00973535 1.71552e-07 272.512 
-0.39 -0.87 -0.547123 -0.231772 0.00977665 0.00970849 2.68952e-06 0.00973751 1.71621e-07 272.463 
-0.43 -0.85 -0.248123 0.553032 0.00979148 0.00971963 -3.25711e-07 0.00974064 1.71567e-07 272.636 
-0.37 -0.87 -0.462781 -0.0849969 0.00978557 0.00973986 5.36946e-06 0.00976197 1.71883e-07 272.731 
-0.41 -0.85 -0.296293 1.01837 0.00979403 0.00972093 1.48237e-05 0.00974947 1.71815e-07 272.49 
-0.35 -0.87 -0.0966668 0.398056 0.0097899 0.00971609 1.58261e-05 0.0097585 1.71707e-07 272.914 
-0.39 -0.85 -0.543593 0.249429 0.00977102 0.00972367 4.9393e-06 0.00973683 1.71655e-07 272.39 
-0.33 -0.87 -0.0501268 0.318956 0.00977658 0.0097005 1.30702e-05 0.00973642 1.71322e-07 272.909 
-0.37 -0.85 -1.01436 -0.596501 0.00977756 0.00971812 1.7525e-05 0.00976256 1.71912e-07 272.702 
-0.35 -0.85 -0.623938 0.0741009 0.00976928 0.00971481 1.99821e-05 0.00975188 1.7155e-07 272.979 
-0.33 -0.85 -0.739284 0.704795 0.00976093 0.00970301 2.53897e-05 0.00973605 1.71425e-07 272.734 
-0.31 -0.99 -0.111149 0.0978175 0.00970791 0.00967992 7.2947e-06 0.00969472 1.70895e-07 272.418 
-0.29 -0.99 -0.528204 0.330603 0.0097126 0.00969738 -8.10122e-06 0.00970127 1.71058e-07 272.342 
-0.27 -0.99 -0.357017 -0.415612 0.00975415 0.0097373 1.88355e-06 0.00974369 1.71502e-07 272.825 
-0.31 -0.97 -0.37243 0.383955 0.00973663 0.00970478 -8.98725e-06 0.00972958 1.71563e-07 272.333 
-0.29 -0.97 -0.187764 0.1609 0.00974369 0.00970196 3.59299e-06 0.00973349 1.71373e-07 272.744 
-0.33 -0.95 -0.186469 0.102765 0.00974677 0.0096971 -6.70995e-06 0.00972019 1.71221e-07 272.614 
-0.27 -0.97 0.220747 -0.399447 0.00972078 0.00970822 -1.63321e-06 0.0097211 1.71584e-07 272.063 
-0.31 -0.95 -0.129679 0.593398 0.00973834 0.00969597 -7.50493e-08 0.00971437 1.71534e-07 271.954 
-0.29 -0.95 -0.0280836 -0.300682 0.00974104 0.00969011 1.65527e-06 0.00971838 1.71706e-07 271.794 
-0.33 -0.93 -0.514001 0.0382107 0.00976638 0.00970013 2.19065e-06 0.0097302 1.71401e-07 272.608 
-0.27 -0.95 -0.472778 -0.189857 0.00974904 0.00973483 1.91818e-06 0.00973725 1.71704e-07 272.324 
-0.31 -0.93 -0.58384 0.180861 0.00975703 0.00969952 -1.06658e-07 0.0097195 1.7137e-07 272.358 
-0.29 -0.93 -0.724104 0.0676783 0.00975361 0.00968836 2.10894e-06 0.00972731 1.71927e-07 271.694 
-0.27 -0.93 -0.23624 -0.298858 0.00978494 0.00974074 -1.02539e-05 0.00977532 1.72247e-07 272.526 
-0.31 -0.91 -0.359263 0.259211 0.00977053 0.00969398 1.92196e-05 0.00973617 1.71635e-07 272.404 
-0.29 -0.91 -0.203981 -0.279744 0.0097504 0.00970969 -1.4389e-05 0.00972292 1.71421e-07 272.372 
-0.33 -0.89 -0.444066 0.0465415 0.00976297 0.00970235 -2.33135e-06 0.00973166 1.71214e-07 272.947 
-0.27 -0.91 -0.735265 -0.214192 0.00973663 0.00971432 -1.22167e-05 0.00972415 1.71508e-07 272.268 
-0.31 -0.89 -0.272065 -0.0938629 0.00977975 0.00968303 -9.69735e-07 0.00973587 1.71556e-07 272.521 
-0.29 -0.89 -0.15494 -0.114796 0.0097972 0.00974189 -2.23924e-06 0.00976318 1.71593e-07 273.226 
-0.27 -0.89 -0.398483 0.188504 0.00978018 0.00970609 -7.90557e-06 0.00974966 1.71747e-07 272.604 
-0.31 -0.87 -0.423216 -0.125866 0.00974782 0.00969628 -4.34423e-06 0.00972365 1.71268e-07 272.636 
-0.29 -0.87 -0.605619 -0.153766 0.0097376 0.00973302 1.37818e-06 0.00974012 1.71513e-07 272.708 
-0.27 -0.87 -0.475346 0.54871 0.00974543 0.00970832 2.10147e-06 0.00972528 1.71339e-07 272.569 
-0.31 -0.85 -0.583738 -0.113068 0.009769 0.0097124 7.93918e-06 0.00974045 1.7182e-07 272.23 
-0.29 -0.85 -0.530898 0.166911 0.00975571 0.0097284 1.26243e-05 0.00975019 1.71801e-07 272.532 
-0.27 -0.85 -0.546856 0.444002 0.00974375 0.00970305 -9.92862e-07 0.00973409 1.70872e-07 273.562 
-0.25 -0.99 -0.223678 0.092695 0.00975843 0.0097654 1.60461e-05 0.0097641 1.72013e-07 272.584 
-0.25 -0.97 -0.116802 0.282454 0.00974243 0.00976499 -4.72119e-06 0.00975246 1.71529e-07 273.027 
-0.25 -0.95 -0.349458 0.392351 0.00973559 0.00974435 -5.62804e-06 0.00974538 1.71584e-07 272.742 
-0.25 -0.93 -0.464533 0.201215 0.00976865 0.00972607 4.13697e-06 0.00973815 1.71555e-07 272.586 
-0.25 -0.91 -0.261699 0.199279 0.00974603 0.00972046 3.82051e-06 0.00973531 1.71441e-07 272.687 
-0.25 -0.89 -0.75611 0.0177804 0.00977633 0.00971188 9.90701e-07 0.00974435 1.71407e-07 272.995 
-0.25 -0.87 -1.07802 0.135062 0.00972783 0.00969857 5.98143e-06 0.0097174 1.70901e-07 273.046 
-0.25 -0.85 -0.091205 0.411104 0.00975647 0.00970035 -8.882e-06 0.00974089 1.71197e-07 273.232 
-0.25 -0.83 -0.217634 0.0609254 0.00976917 0.00969478 -3.52922e-06 0.00974917 1.71185e-07 273.484 
-0.33 -0.81 0.300251 0.190281 0.00979105 0.00970497 1.12314e-05 0.00973955 1.71521e-07 272.679 
-0.31 -0.81 0.035249 0.181679 0.00980619 0.00972368 7.72375e-06 0.00976106 1.71415e-07 273.45 
-0.29 -0.81 -0.00495415 -0.319331 0.00979513 0.00972792 -6.10308e-06 0.00976549 1.71653e-07 273.195 
-0.27 -0.81 0.117516 0.412652 0.00979334 0.00972946 1.14717e-05 0.00976853 1.71617e-07 273.338 
-0.31 -0.79 0.315999 0.435015 0.00977985 0.00973451 3.65793e-06 0.00974461 1.71607e-07 272.684 
-0.29 -0.79 -0.146457 0.080386 0.00977652 0.00971635 -5.03046e-07 0.00972562 1.71337e-07 272.581 
-0.33 -0.77 0.0113366 0.158617 0.0097621 0.0097274 1.802e-05 0.00973353 1.71393e-07 272.714 
-0.27 -0.79 -0.570112 0.416434 0.00975693 0.0096871 7.23503e-06 0.00972109 1.71001e-07 272.989 
-0.31 -0.77 0.00860922 0.420705 0.00974935 0.00971922 3.98492e-07 0.00973126 1.71509e-07 272.466 
-0.29 -0.77 -0.148048 0.855782 0.00976506 0.0097158 1.43104e-05 0.00973715 1.71652e-07 272.404 
-0.27 -0.77 -0.495435 0.603966 0.00977132 0.00968936 1.19155e-05 0.00974059 1.71531e-07 272.693 
-0.31 -0.75 -0.042678 0.824457 0.00976017 0.00972182 3.05002e-07 0.00975781 1.71959e-07 272.494 
-0.29 -0.75 -0.680489 1.12247 0.00975659 0.00971786 1.43561e-05 0.00973225 1.71453e-07 272.584 
-0.27 -0.75 -0.802444 0.844237 0.00976496 0.00968853 1.32196e-05 0.00972454 1.71351e-07 272.529 
-0.49 -0.83 -0.18554 -0.00825322 0.0097582 0.00971878 -1.36964e-07 0.00975246 1.71628e-07 272.87 
-0.47 -0.83 -0.00689313 0.366774 0.0097568 0.00972033 -1.04599e-05 0.00974411 1.71508e-07 272.827 
-0.45 -0.83 0.234261 0.286213 0.00976491 0.00972814 7.35338e-06 0.00975687 1.71386e-07 273.379 
-0.49 -0.81 0.0740358 -0.185027 0.00977528 0.0097312 -3.94907e-06 0.00976986 1.71778e-07 273.119 
-0.43 -0.83 0.0442121 0.835647 0.00974363 0.00969169 1.21501e-05 0.00971562 1.71119e-07 272.649 
-0.47 -0.81 -0.00253263 0.151982 0.00975611 0.00971938 -1.3177e-06 0.00976243 1.7169e-07 273.051 
-0.45 -0.81 0.0548112 0.448923 0.00976906 0.00971053 1.40351e-05 0.00974689 1.71711e-07 272.582 
-0.49 -0.79 -0.208647 0.172731 0.00974946 0.00972476 3.31808e-06 0.00974273 1.71677e-07 272.521 
-0.43 -0.81 -0.171632 0.870713 0.00980232 0.00971287 5.56916e-06 0.00975147 1.71577e-07 272.923 
-0.47 -0.79 -0.183258 0.0580216 0.00975401 0.00972314 -4.83133e-07 0.00973955 1.71571e-07 272.599 
-0.41 -0.81 -0.353395 1.03738 0.00976441 0.00970084 1.80525e-05 0.00973697 1.71603e-07 272.477 
-0.45 -0.79 -0.617888 0.686542 0.00973113 0.00970744 -4.88177e-06 0.00971477 1.71406e-07 272.167 
-0.49 -0.77 0.156831 0.0914094 0.0097367 0.00973361 8.65614e-06 0.00972731 1.71189e-07 272.864 
-0.39 -0.81 -0.114898 0.42921 0.00975526 0.00970756 1.96122e-05 0.00975326 1.71891e-07 272.475 
-0.43 -0.79 -0.580217 0.923257 0.00974503 0.00970479 5.83402e-06 0.00972386 1.71358e-07 272.499 
-0.47 -0.77 -0.354845 0.5428 0.00973304 0.009708 4.34756e-06 0.00970974 1.71034e-07 272.619 
-0.37 -0.81 0.502015 -0.21375 0.00976707 0.00973269 7.54363e-06 0.00974447 1.71753e-07 272.449 
-0.41 -0.79 -0.407469 0.589849 0.00977799 0.00970073 1.1385e-05 0.00974597 1.7192e-07 272.226 
-0.45 -0.77 -0.882279 1.43678 0.00975799 0.00973273 -5.57986e-06 0.00974011 1.71785e-07 272.276 
-0.35 -0.81 0.29344 0.24826 0.00977609 0.00971754 2.06012e-06 0.00975753 1.71747e-07 272.824 
-0.39 -0.79 0.227255 -0.0877118 0.00978006 0.00971033 3.40803e-06 0.00974358 1.71767e-07 272.402 
-0.43 -0.77 -0.961369 0.435683 0.0097306 0.00967853 -9.31355e-06 0.009698 1.71124e-07 272.145 
-0.37 -0.79 -0.0885036 -0.105444 0.0098006 0.00974554 1.57999e-05 0.00976002 1.71972e-07 272.536 
-0.41 -0.77 -0.379633 0.113822 0.00972561 0.00969312 7.39753e-06 0.00971156 1.71437e-07 272.029 
-0.35 -0.79 0.11181 0.470849 0.00978451 0.00971212 1.06688e-05 0.00974754 1.71741e-07 272.554 
-0.39 -0.77 -0.253085 -0.142026 0.00974627 0.00973114 2.12901e-06 0.00975476 1.71786e-07 272.684 
-0.43 -0.75 0.189451 0.566152 0.009752 0.00969004 7.94424e-06 0.00972586 1.71315e-07 272.623 
-0.33 -0.79 0.271338 0.171747 0.00976704 0.00970527 2.56767e-06 0.00972677 1.71478e-07 272.389 
-0.37 -0.77 0.222706 -0.0696009 0.00974094 0.00971811 -9.05192e-07 0.00972532 1.71244e-07 272.72 
-0.41 -0.75 -0.066539 0.12182 0.00975508 0.00971373 7.45393e-07 0.00973305 1.714e-07 272.69 
-0.35 -0.77 0.253579 0.463807 0.00975914 0.00971772 6.04694e-06 0.00973515 1.70942e-07 273.479 
-0.39 -0.75 -0.114387 -0.141634 0.00974832 0.00970513 -5.4527e-06 0.0097402 1.71545e-07 272.659 
-0.49 -0.75 -0.12399 0.253318 0.00973138 0.0097321 2.21888e-06 0.00973635 1.70808e-07 273.728 
-0.47 -0.75 -0.301168 0.860851 0.00974837 0.00972932 -7.56818e-06 0.00972481 1.7107e-07 272.985 
-0.45 -0.75 0.0486813 1.11496 0.00974482 0.00970053 -6.67233e-06 0.00971655 1.71266e-07 272.44 
-0.49 -0.73 -0.114422 0.450852 0.00976875 0.00972375 2.1936e-06 0.00975506 1.71108e-07 273.773 
-0.47 -0.73 -0.36199 1.07078 0.00976664 0.00975315 -4.18368e-06 0.0097675 1.71361e-07 273.717 
-0.45 -0.73 -0.183496 0.352062 0.00977151 0.0096952 -1.71686e-05 0.00973067 1.71471e-07 272.511 
-0.49 -0.71 -0.155326 0.578435 0.0098313 0.00975662 7.65531e-06 0.00980219 1.72104e-07 273.504 
-0.43 -0.73 0.462727 0.520401 0.00976964 0.00969317 -7.40162e-06 0.00973472 1.71302e-07 272.892 
-0.47 -0.71 -0.0164036 0.613127 0.00981957 0.0097511 -7.39568e-06 0.00977964 1.71688e-07 273.535 
-0.37 -0.75 -0.3721 -0.434164 0.00974298 0.00973002 1.49294e-05 0.00971774 1.71489e-07 272.12 
-0.41 -0.73 0.426589 0.37566 0.00977241 0.00970102 -7.48819e-06 0.00973592 1.71226e-07 273.048 
-0.45 -0.71 0.447566 0.188244 0.00978564 0.00969494 -6.98869e-07 0.0097452 1.71651e-07 272.631 
-0.49 -0.69 -0.0944529 0.615702 0.00976212 0.00972685 -1.00925e-05 0.00974863 1.71316e-07 273.259 
-0.35 -0.75 -0.124559 0.130357 0.00974954 0.00972864 1.04836e-05 0.00973498 1.7134e-07 272.839 
-0.39 -0.73 0.424825 -0.427185 0.00977598 0.00969854 1.3493e-05 0.00973541 1.71193e-07 273.086 
-0.43 -0.71 0.0128186 0.0647614 0.00977035 0.00969904 -5.32269e-06 0.00973275 1.71632e-07 272.312 
-0.47 -0.69 0.269141 0.13816 0.00976868 0.00973638 2.08096e-05 0.00975762 1.71493e-07 273.23 
-0.37 -0.73 0.363936 -0.128022 0.00978347 0.00972394 8.35926e-06 0.0097398 1.71734e-07 272.348 
-0.41 -0.71 0.614187 0.655882 0.00977847 0.00968215 -6.37348e-06 0.00974563 1.71783e-07 272.433 
-0.45 -0.69 0.100194 0.484924 0.00978927 0.00971162 6.13796e-06 0.00975858 1.71868e-07 272.661 
-0.35 -0.73 -0.163012 0.170777 0.00977319 0.00972349 1.0963e-05 0.00975593 1.71672e-07 272.897 
-0.39 -0.71 0.152526 0.0846022 0.00978501 0.00971536 -1.48662e-07 0.00975162 1.71744e-07 272.662 
-0.43 -0.69 0.0520824 0.268572 0.00980044 0.00971839 -1.97909e-06 0.00976281 1.72365e-07 271.992 
-0.33 -0.73 -0.156777 -0.0577626 0.00977833 0.00973035 1.27817e-05 0.00977052 1.72178e-07 272.502 
-0.37 -0.71 -0.2079 -0.101885 0.00976735 0.00971239 6.9867e-06 0.00974139 1.71604e-07 272.599 
-0.41 -0.69 0.0625347 0.0275413 0.00977402 0.00967994 -2.86408e-06 0.00972895 1.71603e-07 272.252 
-0.35 -0.71 -0.560054 0.395767 0.00975883 0.00971882 6.63701e-06 0.00975267 1.71697e-07 272.767 
-0.39 -0.69 0.122291 0.402306 0.00975632 0.00969568 1.12145e-05 0.00972707 1.71659e-07 272.111 
-0.37 -0.69 -0.042509 0.198283 0.00977464 0.00971173 9.53668e-06 0.00975491 1.71694e-07 272.835 
-0.35 -0.69 0.286808 0.423318 0.00977887 0.00972303 1.37178e-05 0.00974225 1.71369e-07 272.997 
-0.35 -0.67 -0.0904938 0.233413 0.00978349 0.00975072 4.44205e-06 0.0097549 1.71449e-07 273.223 
-0.33 -0.67 -0.0898433 0.473877 0.00975878 0.00971856 -1.34482e-07 0.0097512 1.71594e-07 272.889 
-0.33 -0.75 0.401559 0.187968 0.00975836 0.00971739 2.31901e-06 0.00974834 1.71994e-07 272.175 
-0.31 -0.73 -0.280297 1.16207 0.00978443 0.00972935 -5.05745e-06 0.00975541 1.71879e-07 272.555 
-0.29 -0.73 0.136739 1.19204 0.00976587 0.00969953 4.90941e-06 0.00973651 1.71325e-07 272.906 
-0.33 -0.71 -0.735411 -0.127274 0.00976557 0.00973651 2.62319e-06 0.00974886 1.71647e-07 272.739 
-0.27 -0.73 -0.0683781 1.07032 0.00975322 0.00969952 2.18702e-05 0.00973685 1.71127e-07 273.231 
-0.31 -0.71 -0.200375 0.759033 0.00975618 0.00972917 2.01389e-05 0.00976287 1.72007e-07 272.56 
-0.29 -0.71 -0.0201249 0.920895 0.00974927 0.00968053 1.289e-05 0.0097308 1.71378e-07 272.661 
-0.33 -0.69 -0.0209746 0.0556145 0.00977966 0.00972839 -1.32293e-05 0.00976405 1.71858e-07 272.829 
-0.27 -0.71 0.485787 1.10241 0.00978136 0.00970226 1.19563e-06 0.00974773 1.71488e-07 272.961 
-0.31 -0.69 -0.39641 0.474748 0.00978065 0.00971199 1.75779e-05 0.00975186 1.71806e-07 272.571 
-0.29 -0.69 -0.277068 0.639519 0.00977278 0.00971048 1.17147e-05 0.00975111 1.71771e-07 272.605 
-0.27 -0.69 -0.248106 1.11073 0.00974886 0.00968827 8.59341e-06 0.00972941 1.71053e-07 273.14 
-0.31 -0.67 -0.199988 0.750842 0.00975988 0.00968902 2.79746e-06 0.00972795 1.71356e-07 272.616 
-0.29 -0.67 -0.532026 0.640185 0.0097738 0.00972135 1.94724e-05 0.00975944 1.71657e-07 273.019 
-0.41 -0.83 0.0354356 0.844638 0.00976571 0.00972612 4.2551e-06 0.0097459 1.71779e-07 272.448 
-0.39 -0.83 -0.0717401 0.783661 0.0097688 0.00972338 3.12634e-05 0.00974279 1.71754e-07 272.4 
-0.37 -0.83 -0.252099 -0.00966659 0.00974006 0.00971425 1.88595e-05 0.00973716 1.71655e-07 272.399 
-0.35 -0.83 -0.472896 -0.137203 0.00976246 0.00971379 1.966e-05 0.00973703 1.71505e-07 272.633 
-0.33 -0.83 -0.312759 0.492968 0.00977975 0.00970931 4.58237e-06 0.00974453 1.71321e-07 273.137 
-0.31 -0.83 0.0453775 -0.316853 0.00977166 0.00969604 1.30842e-05 0.00974656 1.715e-07 272.908 
-0.29 -0.83 -0.0215973 0.011782 0.00978135 0.0097433 6.07758e-06 0.00977842 1.71768e-07 273.374 
-0.27 -0.83 -0.146623 0.382397 0.00978402 0.00972065 7.68395e-06 0.00976138 1.71506e-07 273.315 
-0.27 -0.67 -0.569135 0.760402 0.00976263 0.00969624 1.83061e-05 0.00974761 1.7149e-07 272.954 
-0.25 -0.67 -0.265746 0.562916 0.00977788 0.00969584 5.65421e-06 0.00974712 1.7162e-07 272.733 
-0.25 -0.81 -0.13383 0.262553 0.0097759 0.00970831 1.8114e-05 0.00975458 1.7141e-07 273.277 
-0.25 -0.79 -0.712455 0.261044 0.00979352 0.00973266 2.18381e-05 0.00975939 1.71389e-07 273.445 
-0.35 -0.55 0.0730879 0.692797 0.00979932 0.00971695 1.76556e-05 0.00975505 1.71615e-07 272.964 
-0.39 -0.53 -0.105433 1.13114 0.0097886 0.00970321 9.14342e-06 0.00975747 1.71543e-07 273.145 
-0.37 -0.57 -0.0056981 1.00558 0.00978639 0.00970884 6.77653e-06 0.0097469 1.71278e-07 273.273 
-0.41 -0.55 0.216505 0.981455 0.00975519 0.00971474 -1.21098e-05 0.00974546 1.71597e-07 272.723 
-0.45 -0.53 0.0657309 0.409556 0.0097821 0.00969002 -8.24225e-06 0.00972817 1.71319e-07 272.681 
-0.35 -0.57 -0.0627402 0.697345 0.00976442 0.0096887 2.89267e-05 0.00972829 1.71264e-07 272.773 
-0.39 -0.55 -0.18047 1.03215 0.00976409 0.00970635 1.27585e-05 0.00975462 1.71579e-07 273.009 
-0.43 -0.53 -0.326596 0.499526 0.00978869 0.00969569 3.07619e-06 0.0097411 1.71335e-07 273.018 
-0.47 -0.51 -0.476581 0.37945 0.0097846 0.00969593 4.44232e-06 0.00973227 1.71447e-07 272.594 
-0.37 -0.55 0.0194861 1.03793 0.00975591 0.00968016 -2.15275e-07 0.00972247 1.71008e-07 273.017 
-0.41 -0.53 -0.468119 0.494634 0.00979027 0.00970986 4.55825e-06 0.00974553 1.71391e-07 273.054 
-0.45 -0.51 -0.418034 0.38189 0.00979064 0.00969499 5.33204e-06 0.00974593 1.71684e-07 272.599 
-0.37 -0.53 -0.0145805 0.955218 0.00977111 0.00970002 1.06122e-05 0.00975019 1.71716e-07 272.668 
-0.41 -0.51 -0.534226 0.61659 0.00978182 0.00970675 4.44541e-06 0.00974138 1.71351e-07 273 
-0.35 -0.53 -0.110919 0.806274 0.00974255 0.00969148 -8.53257e-06 0.00971579 1.71349e-07 272.287 
-0.39 -0.51 -0.47046 0.846146 0.00976701 0.00968968 4.15373e-06 0.00972279 1.71161e-07 272.782 
-0.37 -0.51 -0.488322 0.983275 0.00978865 0.00970249 1.82316e-05 0.00974661 1.71681e-07 272.622 
-0.35 -0.51 -0.637675 0.73162 0.00978959 0.00970027 5.74075e-06 0.00974418 1.71567e-07 272.735 
-0.49 -0.65 0.069738 0.361481 0.00977644 0.00970434 1.56971e-05 0.00973977 1.71448e-07 272.802 
-0.47 -0.65 -0.10539 0.404768 0.00978238 0.00974071 1.58123e-05 0.00976552 1.7194e-07 272.74 
-0.45 -0.65 -0.0203564 0.366413 0.00976865 0.00974975 2.711e-06 0.00976378 1.72255e-07 272.193 
-0.49 -0.63 0.00187869 0.216584 0.00975407 0.00970254 1.57967e-05 0.00974809 1.71808e-07 272.462 
-0.43 -0.65 -0.0525314 0.569133 0.00974127 0.0096775 1.07923e-05 0.00972345 1.71281e-07 272.611 
-0.47 -0.63 0.0576808 0.563546 0.00977155 0.00973889 2.58631e-06 0.0097709 1.72263e-07 272.378 
-0.41 -0.65 0.079366 0.401596 0.00975007 0.00968835 2.53485e-06 0.009723 1.71094e-07 272.895 
-0.45 -0.63 -0.51304 0.551417 0.00979602 0.00974248 3.02985e-05 0.00976953 1.72324e-07 272.244 
-0.49 -0.61 -0.203828 0.391818 0.00978753 0.00970629 -1.1021e-05 0.00975862 1.72004e-07 272.445 
-0.39 -0.65 0.266567 0.239681 0.00974551 0.00971349 1.0116e-05 0.0097243 1.71212e-07 272.744 
-0.43 -0.63 -0.539496 0.591436 0.00977771 0.00969397 5.27671e-06 0.00973741 1.71283e-07 272.998 
-0.47 -0.61 -0.412549 0.429713 0.00978658 0.00973305 2.46113e-06 0.00977896 1.72208e-07 272.691 
-0.37 -0.65 -0.453451 0.000775895 0.00975149 0.00968493 -9.43038e-06 0.00971131 1.70964e-07 272.775 
-0.41 -0.63 -0.875602 0.225158 0.00977499 0.00968292 1.15844e-05 0.00973165 1.71168e-07 273.021 
-0.45 -0.61 0.0786805 0.751483 0.00978355 0.00972913 -2.44372e-06 0.00977361 1.72204e-07 272.547 
-0.49 -0.59 -0.0800628 0.409376 0.00976871 0.00968355 -2.80765e-05 0.00974066 1.71625e-07 272.544 
-0.35 -0.65 -0.679057 0.283023 0.00976653 0.00975109 1.05464e-05 0.00974132 1.71514e-07 272.74 
-0.39 -0.63 -0.761847 0.39445 0.00978412 0.00972991 2.53459e-06 0.00973579 1.71391e-07 272.78 
-0.43 -0.61 0.0902836 0.875917 0.00980999 0.00970215 2.43667e-05 0.00977564 1.71762e-07 273.306 
-0.47 -0.59 -0.273669 0.613035 0.0097939 0.00972609 -1.08503e-05 0.00977698 1.71956e-07 273.035 
-0.37 -0.63 -0.72164 0.605025 0.00976709 0.00969263 -2.95843e-06 0.00972242 1.7139e-07 272.407 
-0.41 -0.61 -0.252076 0.596526 0.00980864 0.00970579 6.89843e-06 0.00976003 1.71467e-07 273.339 
-0.45 -0.59 -0.216779 0.0743152 0.00980867 0.00971994 6.80778e-06 0.00978179 1.72112e-07 272.922 
-0.49 -0.57 0.280953 0.410813 0.00978496 0.00969651 -1.84753e-05 0.00973037 1.71126e-07 273.052 
-0.35 -0.63 -0.945657 0.319935 0.00975181 0.00971151 4.76477e-06 0.009721 1.71215e-07 272.647 
-0.39 -0.61 -0.484098 0.0147678 0.00981042 0.00970704 -2.32165e-06 0.00975419 1.71633e-07 272.911 
-0.43 -0.59 0.337092 0.741007 0.00979757 0.00970038 5.71541e-06 0.00975515 1.71904e-07 272.507 
-0.47 -0.57 0.102807 0.582485 0.00977109 0.00970695 -1.59393e-05 0.00973758 1.71486e-07 272.68 
-0.37 -0.61 -0.515736 0.632904 0.00980971 0.0097038 1.82832e-05 0.00975984 1.7158e-07 273.153 
-0.41 -0.59 0.370582 0.769665 0.00979342 0.00971431 5.83365e-06 0.00975901 1.71491e-07 273.272 
-0.45 -0.57 0.101642 0.0747371 0.00976472 0.00969685 -1.1282e-06 0.0097357 1.71505e-07 272.597 
-0.49 -0.55 -0.228398 0.231989 0.0097769 0.00971246 -6.4151e-06 0.00974441 1.71706e-07 272.521 
-0.35 -0.61 -0.45331 0.643526 0.00980058 0.0097006 1.29403e-05 0.00973823 1.71194e-07 273.163 
-0.39 -0.59 0.0617306 0.712435 0.00978514 0.00966673 1.05298e-05 0.00973376 1.7125e-07 272.949 
-0.43 -0.57 0.0573469 0.475728 0.00978253 0.00969781 4.1701e-06 0.00975032 1.71236e-07 273.436 
-0.47 -0.55 0.0435937 0.760081 0.00976638 0.00968484 -1.29917e-05 0.00972185 1.7171e-07 271.884 
-0.33 -0.61 -0.834081 0.429481 0.00979195 0.00969678 2.38147e-05 0.00975316 1.71446e-07 273.18 
-0.37 -0.59 -0.524697 0.452111 0.00978366 0.00972993 1.56068e-05 0.00975813 1.71455e-07 273.305 
-0.41 -0.57 0.119756 0.838761 0.00978637 0.00972489 2.72491e-05 0.00975304 1.71456e-07 273.16 
-0.45 -0.55 -0.0593507 -0.173754 0.00976296 0.00968731 -5.53299e-06 0.00970899 1.71137e-07 272.433 
-0.49 -0.53 0.120911 0.420612 0.00979203 0.00971222 1.2705e-05 0.00974614 1.71557e-07 272.806 
-0.35 -0.59 -0.774023 0.925987 0.00979527 0.00968565 1.20347e-05 0.00974113 1.71472e-07 272.801 
-0.39 -0.57 -0.0771308 1.17153 0.00977902 0.00968223 -2.26804e-08 0.009739 1.71294e-07 273.026 
-0.43 -0.55 0.0748849 0.429186 0.00975537 0.0096998 1.9441e-05 0.00974107 1.71511e-07 272.737 
-0.47 -0.53 0.0750906 0.105764 0.00978412 0.00968723 1.0302e-05 0.00972658 1.71364e-07 272.565 
-0.29 -0.57 -0.437266 0.393986 0.00976995 0.00967861 1.84996e-05 0.00972364 1.71181e-07 272.775 
-0.33 -0.55 -0.514967 0.996554 0.00979266 0.00971166 6.88451e-06 0.00974098 1.71356e-07 272.981 
-0.29 -0.61 -0.672438 0.49802 0.00976903 0.00969386 6.49325e-06 0.00973242 1.71414e-07 272.649 
-0.33 -0.59 -0.563435 0.853325 0.00979593 0.00970016 2.36028e-05 0.00976101 1.71662e-07 273.056 
-0.27 -0.61 -0.904397 0.764342 0.00978978 0.00969123 2.08972e-05 0.00974713 1.71677e-07 272.644 
-0.31 -0.59 -1.03413 0.652806 0.00979925 0.00973824 1.59459e-05 0.00976055 1.71816e-07 272.798 
-0.29 -0.59 -0.841614 0.110932 0.00980108 0.00967703 2.35409e-05 0.00973151 1.71171e-07 273.011 
-0.33 -0.57 -0.201872 0.684442 0.00976518 0.00971169 -3.31657e-07 0.00972453 1.71152e-07 272.845 
-0.27 -0.59 -0.543477 0.831524 0.00978047 0.00969543 2.67717e-05 0.00974335 1.71257e-07 273.205 
-0.31 -0.57 -0.16477 0.695796 0.00977694 0.00971816 1.27958e-05 0.00975296 1.71561e-07 272.99 
-0.27 -0.57 -0.498027 0.269415 0.00978406 0.00969551 3.28939e-05 0.00975792 1.71625e-07 273.028 
-0.31 -0.55 -0.0919419 0.789277 0.00977494 0.009685 2.67439e-05 0.00972768 1.70914e-07 273.314 
-0.29 -0.55 -0.447841 0.467623 0.00976174 0.00969576 3.20258e-05 0.00972093 1.70901e-07 273.146 
-0.33 -0.53 0.0190662 1.30172 0.0097525 0.00970911 1.74411e-05 0.00971634 1.70908e-07 273.005 
-0.27 -0.55 -0.415136 0.385479 0.00974259 0.00967011 3.10388e-05 0.00971124 1.71282e-07 272.267 
-0.31 -0.53 -0.201933 0.558079 0.00975795 0.00967217 2.51518e-05 0.00972244 1.70873e-07 273.232 
-0.29 -0.53 -0.213038 0.727823 0.00979968 0.0096916 3.77043e-05 0.00974508 1.71347e-07 273.111 
-0.33 -0.51 -0.261881 0.848846 0.00977948 0.00969277 2.10293e-05 0.00973581 1.71383e-07 272.794 
-0.27 -0.53 -0.21462 0.338304 0.00978711 0.00967396 3.35563e-05 0.0097301 1.71246e-07 272.853 
-0.31 -0.51 -0.0826986 0.738209 0.00976663 0.00967492 7.47146e-06 0.00971313 1.70971e-07 272.814 
-0.29 -0.51 -0.0741854 0.593426 0.00974988 0.00966404 2.35206e-05 0.00971342 1.70878e-07 272.971 
-0.27 -0.51 -0.0982753 0.736865 0.00978365 0.00969113 3.23265e-05 0.00974689 1.71259e-07 273.303 
-0.33 -0.65 -1.04842 0.237938 0.00976534 0.00971922 1.39149e-05 0.00974258 1.71246e-07 273.202 
-0.31 -0.65 -0.717296 0.890495 0.00975626 0.00969647 1.47882e-05 0.00974164 1.71346e-07 273.016 
-0.29 -0.65 -0.536532 0.500297 0.0097365 0.00969542 1.74357e-05 0.00972861 1.71292e-07 272.737 
-0.33 -0.63 -0.657343 0.406289 0.00975564 0.00972411 2.84494e-05 0.00973542 1.71195e-07 273.083 
-0.27 -0.65 -0.56636 0.723058 0.00976865 0.00971887 1.45809e-05 0.00975313 1.71642e-07 272.867 
-0.31 -0.63 -0.870602 0.508887 0.00974101 0.00968095 1.10218e-05 0.00971928 1.70935e-07 273.044 
-0.25 -0.65 -0.644918 0.193397 0.00975655 0.00968523 1.33998e-05 0.00972725 1.71443e-07 272.458 
-0.29 -0.63 -0.845303 0.29185 0.00977504 0.00972205 5.22379e-06 0.00973427 1.71364e-07 272.782 
-0.27 -0.63 -0.800597 0.79619 0.00974173 0.00969588 1.36009e-05 0.00972404 1.71624e-07 272.082 
-0.31 -0.61 -0.950878 0.48149 0.0097905 0.00972405 1.91016e-05 0.00975594 1.71615e-07 272.989 
-0.49 -0.67 0.118842 0.618979 0.00977855 0.00969987 6.09598e-07 0.00973865 1.71221e-07 273.132 
-0.47 -0.67 0.115987 -0.306577 0.00976957 0.00974262 5.17505e-06 0.00975488 1.71729e-07 272.778 
-0.45 -0.67 0.0914341 0.986462 0.00975508 0.00972599 3.3897e-06 0.00974048 1.71443e-07 272.829 
-0.43 -0.67 0.00590546 0.185861 0.00977531 0.00970188 -2.61483e-06 0.00973913 1.71861e-07 272.127 