ITEM: TIMESTEP
1057500
ITEM: NUMBER OF CELLS
5000
ITEM: BOX BOUNDS ss ss pp
-0.5 0.5
-1 1
-0.5 0.5
ITEM: CELLS xc yc f_U[*] f_V[*] f_Tau[1] f_Tau[2] f_Tau[3] f_Press[*] f_Mrho[*] f_Ttra[*] 
-0.49 -0.99 -0.0327585 0.092986 0.00976256 0.00973427 8.62218e-06 0.00974882 1.71473e-07 273.015 
-0.47 -0.99 -0.128333 0.0222266 0.00974909 0.00971863 6.33005e-06 0.00973736 1.71408e-07 272.798 
-0.45 -0.99 -0.253044 0.0178848 0.00975262 0.00973051 5.12602e-06 0.00974495 1.71422e-07 272.988 
-0.49 -0.97 -0.0401963 0.158474 0.00974587 0.00972187 1.05122e-05 0.00973372 1.71308e-07 272.855 
-0.43 -0.99 -0.288018 -0.0431455 0.00974705 0.00972118 3.18499e-06 0.00973792 1.71322e-07 272.95 
-0.47 -0.97 -0.095917 0.0733603 0.00974984 0.00972316 1.21751e-05 0.00973991 1.71376e-07 272.92 
-0.41 -0.99 -0.101139 -0.0748988 0.00974255 0.00972557 4.51588e-07 0.00973756 1.71309e-07 272.962 
-0.45 -0.97 -0.0363736 0.0736804 0.00974669 0.00973477 4.41526e-06 0.00974596 1.71455e-07 272.964 
-0.49 -0.95 0.0579556 0.0885277 0.00973757 0.00971397 1.91649e-06 0.00973248 1.71275e-07 272.872 
-0.39 -0.99 -0.156111 0.0870127 0.00974464 0.00972638 1.92494e-06 0.00973639 1.71158e-07 273.168 
-0.43 -0.97 0.00989335 0.051689 0.00974824 0.00972211 1.76046e-06 0.00974009 1.71326e-07 273.004 
-0.47 -0.95 0.105071 0.0865805 0.00975262 0.00972665 -2.68189e-07 0.00974092 1.71385e-07 272.934 
-0.37 -0.99 -0.193609 -0.0134142 0.00974303 0.00972857 8.32444e-06 0.00973892 1.71313e-07 272.992 
-0.41 -0.97 -0.186747 -0.183801 0.0097449 0.00972565 4.25143e-06 0.00973817 1.71369e-07 272.882 
-0.45 -0.95 0.190712 -0.038546 0.00975968 0.00973768 6.29628e-06 0.00975563 1.71599e-07 273.005 
-0.49 -0.93 -0.00924356 0.0382122 0.00976956 0.00972269 -7.81819e-07 0.0097504 1.71539e-07 272.955 
-0.35 -0.99 -0.146886 -0.0888667 0.00973665 0.00971078 4.45544e-06 0.0097206 1.71092e-07 272.831 
-0.39 -0.97 -0.0436538 0.0428762 0.00974121 0.00972379 6.19693e-06 0.00973979 1.71422e-07 272.844 
-0.43 -0.95 0.146213 0.0660613 0.00975869 0.00972019 7.38108e-06 0.00974644 1.71469e-07 272.955 
-0.47 -0.93 0.0105813 0.040371 0.00975962 0.00972207 9.63723e-07 0.00974507 1.71526e-07 272.826 
-0.33 -0.99 -0.0909666 0.0149945 0.00973483 0.00972777 6.11457e-06 0.00972865 1.71241e-07 272.819 
-0.37 -0.97 0.0010158 -0.0491077 0.00973909 0.0097276 4.32669e-06 0.00974073 1.71336e-07 273.006 
-0.41 -0.95 0.0352092 0.0475065 0.00975666 0.0097266 3.12069e-06 0.00974303 1.71529e-07 272.765 
-0.45 -0.93 -0.0906906 0.0577726 0.00975613 0.00973062 5.88185e-06 0.00974531 1.71532e-07 272.822 
-0.49 -0.91 -0.0222628 0.151696 0.00977333 0.0097273 1.14851e-05 0.00975314 1.7148e-07 273.125 
-0.35 -0.97 -0.0394767 -0.0354729 0.0097374 0.009713 1.02057e-05 0.00972937 1.71165e-07 272.961 
-0.39 -0.95 -0.154497 -0.036827 0.00975378 0.0097234 7.19475e-06 0.0097391 1.71464e-07 272.757 
-0.43 -0.93 -0.0799734 0.100683 0.00975431 0.00972479 2.4752e-06 0.00973731 1.71392e-07 272.822 
-0.47 -0.91 -0.232204 0.0379652 0.00976508 0.00972408 6.43337e-06 0.00974542 1.71526e-07 272.836 
-0.33 -0.97 -0.123856 -0.0118703 0.00974313 0.00972442 5.94144e-06 0.00973906 1.71452e-07 272.775 
-0.37 -0.95 -0.132025 -0.0400652 0.00975464 0.00972135 1.1741e-05 0.0097424 1.71316e-07 273.086 
-0.41 -0.93 -0.0736377 0.0446445 0.00975326 0.00972195 1.134e-05 0.0097322 1.71275e-07 272.865 
-0.45 -0.91 -0.0720582 0.0225942 0.00976501 0.00972418 5.91767e-06 0.00975011 1.71525e-07 272.969 
-0.49 -0.89 0.000974803 0.128586 0.00977148 0.00972746 1.14748e-05 0.00975049 1.7146e-07 273.082 
-0.35 -0.95 -0.0644676 -0.00823594 0.00975575 0.00971915 4.15237e-06 0.00974059 1.7136e-07 272.965 
-0.39 -0.93 0.020153 -0.0351948 0.00975044 0.00972342 7.45976e-06 0.00973972 1.71561e-07 272.62 
-0.43 -0.91 -0.156057 0.0628299 0.00976141 0.00973096 9.63742e-06 0.00974372 1.71342e-07 273.082 
-0.47 -0.89 0.101642 0.130814 0.00977033 0.00973055 9.17841e-06 0.00974925 1.71599e-07 272.827 
-0.37 -0.93 -0.00662916 -0.0112355 0.00975414 0.00972312 2.25948e-06 0.00974488 1.71414e-07 272.999 
-0.41 -0.91 -0.0577592 -0.00388661 0.00976692 0.00971406 3.05702e-06 0.00973901 1.71335e-07 272.959 
-0.45 -0.89 -0.0770309 0.130664 0.00976262 0.009719 4.85114e-06 0.00974452 1.71439e-07 272.948 
-0.49 -0.87 -0.0331689 0.150975 0.00975117 0.00971532 -2.9734e-07 0.00973205 1.71263e-07 272.879 
-0.35 -0.93 -0.253125 0.0252685 0.00975754 0.00971995 8.4616e-06 0.00973919 1.71443e-07 272.792 
-0.39 -0.91 -0.0808728 -0.0553736 0.00977185 0.00972994 1.18467e-05 0.00975416 1.71699e-07 272.805 
-0.43 -0.89 -0.139881 0.0233779 0.00976846 0.00973746 5.75717e-06 0.00975335 1.71492e-07 273.112 
-0.47 -0.87 0.0828958 0.119392 0.00975992 0.00973108 1.06934e-05 0.00974245 1.71404e-07 272.947 
-0.37 -0.91 -0.222444 0.199353 0.0097576 0.00972232 1.03202e-05 0.00973996 1.71615e-07 272.542 
-0.41 -0.89 -0.14037 -0.0475259 0.00976081 0.0097126 4.60675e-06 0.00974159 1.715e-07 272.769 
-0.45 -0.87 -0.0913387 0.196568 0.00976636 0.00972117 9.58316e-06 0.00975044 1.71512e-07 272.998 
-0.49 -0.85 -0.055693 0.139462 0.00975075 0.00971406 -7.26503e-09 0.00973021 1.712e-07 272.928 
-0.35 -0.91 -0.140718 0.108701 0.00974958 0.00972118 3.20045e-06 0.00973483 1.71392e-07 272.751 
-0.39 -0.89 -0.0754245 0.128613 0.00975455 0.00971708 1.05979e-05 0.00974332 1.71474e-07 272.859 
-0.43 -0.87 -0.104028 0.0991193 0.00975402 0.0097369 1.11068e-05 0.00974893 1.71544e-07 272.905 
-0.47 -0.85 -0.137851 0.183406 0.00975275 0.00972227 2.13897e-06 0.00974262 1.71336e-07 273.06 
-0.33 -0.91 -0.198909 -0.0607 0.00975515 0.0097195 1.08755e-05 0.00974025 1.7141e-07 272.876 
-0.37 -0.89 -0.162832 0.0915192 0.00976487 0.00973321 1.58595e-05 0.00975608 1.71694e-07 272.867 
-0.41 -0.87 -0.20175 -0.0542396 0.00975823 0.00971469 8.20937e-06 0.00973942 1.71535e-07 272.654 
-0.45 -0.85 -0.102094 0.220392 0.00975823 0.00971895 7.39594e-06 0.00974321 1.71335e-07 273.078 
-0.35 -0.89 -0.218783 0.125495 0.00976646 0.0097196 1.1265e-05 0.00974039 1.71461e-07 272.798 
-0.39 -0.87 -0.29097 0.144165 0.00976633 0.00971455 5.83875e-06 0.00974454 1.71563e-07 272.753 
-0.43 -0.85 -0.188944 0.148678 0.00977025 0.00973982 7.24516e-06 0.00975018 1.71643e-07 272.783 
-0.37 -0.87 -0.342258 0.209759 0.00976969 0.0097288 8.52965e-06 0.00975334 1.71652e-07 272.857 
-0.41 -0.85 -0.183764 0.0688057 0.00976832 0.00971625 9.96949e-06 0.00974494 1.71585e-07 272.728 
-0.35 -0.87 -0.312514 0.0832364 0.00976794 0.00972162 1.19331e-05 0.00974284 1.71455e-07 272.876 
-0.39 -0.85 -0.273065 0.312648 0.00976582 0.00971625 4.1719e-06 0.00974694 1.71563e-07 272.819 
-0.33 -0.87 -0.34922 0.124629 0.00976377 0.00972229 1.35592e-05 0.00974503 1.7154e-07 272.802 
-0.37 -0.85 -0.298849 0.052187 0.00976507 0.00972173 9.91501e-06 0.00974624 1.71488e-07 272.92 
-0.35 -0.85 -0.237668 0.13374 0.00976542 0.00971986 1.28761e-05 0.00974295 1.71384e-07 272.992 
-0.33 -0.85 -0.375721 0.331957 0.00976708 0.00972489 1.31803e-05 0.00974393 1.71422e-07 272.96 
-0.31 -0.99 -0.0249309 -0.0244756 0.00972965 0.00971481 1.37872e-05 0.00972012 1.71186e-07 272.668 
-0.29 -0.99 -0.0999594 0.0447533 0.00972874 0.00971684 8.63442e-06 0.00972844 1.71172e-07 272.924 
-0.27 -0.99 -0.135845 -0.00201473 0.00974274 0.00972841 6.46776e-06 0.00973447 1.71171e-07 273.095 
-0.31 -0.97 -0.374734 0.00908513 0.00974925 0.00972064 6.76791e-06 0.00973707 1.71363e-07 272.861 
-0.29 -0.97 -0.430776 0.189031 0.00975588 0.00972017 7.50619e-06 0.00974725 1.71486e-07 272.951 
-0.33 -0.95 -0.0761991 0.115055 0.00975229 0.00972248 9.81816e-06 0.00973924 1.71335e-07 272.967 
-0.27 -0.97 -0.298845 -0.122899 0.00974332 0.00972242 9.59684e-06 0.00973765 1.71354e-07 272.892 
-0.31 -0.95 -0.154667 0.20924 0.00974965 0.009721 7.67591e-06 0.00973367 1.71306e-07 272.857 
-0.29 -0.95 -0.105796 0.0920225 0.00974428 0.00971203 9.03512e-06 0.00972765 1.71266e-07 272.752 
-0.33 -0.93 -0.256719 0.163499 0.00975879 0.00971939 3.91557e-06 0.00973745 1.71334e-07 272.919 
-0.27 -0.95 -0.32519 -0.102729 0.00974962 0.00972768 6.85487e-06 0.0097396 1.71353e-07 272.947 
-0.31 -0.93 -0.0678104 0.0725471 0.00975997 0.00971978 8.98975e-06 0.00974123 1.7156e-07 272.664 
-0.29 -0.93 -0.162762 0.231678 0.0097622 0.00971471 9.84365e-06 0.00974104 1.7147e-07 272.802 
-0.27 -0.93 -0.186718 0.106558 0.00976138 0.00972334 8.48487e-06 0.00974474 1.71513e-07 272.837 
-0.31 -0.91 -0.215383 0.165163 0.00975557 0.00971872 1.01747e-05 0.00973989 1.71448e-07 272.804 
-0.29 -0.91 -0.25708 0.183127 0.00975353 0.00971486 2.39637e-06 0.00973283 1.71399e-07 272.685 
-0.33 -0.89 -0.249813 0.00720812 0.00975777 0.00972187 6.63517e-06 0.00974224 1.71427e-07 272.904 
-0.27 -0.91 -0.117124 0.135229 0.00975646 0.00972187 6.09255e-06 0.00973703 1.7148e-07 272.674 
-0.31 -0.89 -0.217007 0.200414 0.00975998 0.00972053 3.24971e-06 0.00974527 1.71489e-07 272.891 
-0.29 -0.89 -0.169028 0.050202 0.00975717 0.00971465 9.7198e-06 0.00974051 1.7133e-07 273.011 
-0.27 -0.89 -0.291485 0.241525 0.00975097 0.00971936 1.02937e-05 0.00974188 1.7146e-07 272.841 
-0.31 -0.87 -0.485664 0.191338 0.00975879 0.00972168 8.46155e-06 0.00974114 1.71464e-07 272.815 
-0.29 -0.87 -0.442538 0.10211 0.00975516 0.00970898 9.47617e-06 0.00973769 1.71309e-07 272.965 
-0.27 -0.87 -0.396402 0.237387 0.00975708 0.00972055 1.51618e-05 0.00974293 1.71418e-07 272.937 
-0.31 -0.85 -0.378264 0.0353837 0.00976349 0.00972399 1.65495e-05 0.00974781 1.71498e-07 272.946 
-0.29 -0.85 -0.275306 0.175572 0.00975498 0.00970772 1.26504e-05 0.00973975 1.71397e-07 272.881 
-0.27 -0.85 -0.316711 0.176004 0.00975328 0.00971757 1.18884e-05 0.00973877 1.71188e-07 273.188 
-0.25 -0.99 -0.223251 0.0954623 0.00974824 0.0097378 1.17438e-05 0.0097458 1.71406e-07 273.037 
-0.25 -0.97 -0.169514 0.0938421 0.00974238 0.00973076 8.04665e-06 0.00974051 1.71437e-07 272.84 
-0.25 -0.95 -0.412177 0.0656508 0.00974905 0.00973173 9.31129e-06 0.00974322 1.71397e-07 272.978 
-0.25 -0.93 -0.233871 0.0592127 0.00975984 0.00973352 1.20844e-05 0.00974442 1.7155e-07 272.769 
-0.25 -0.91 -0.261788 0.100223 0.00975763 0.00972976 1.04095e-05 0.00974546 1.7161e-07 272.703 
-0.25 -0.89 -0.326798 0.22834 0.00974821 0.00972198 1.47123e-05 0.00973547 1.71368e-07 272.809 
-0.25 -0.87 -0.422423 0.256084 0.00975193 0.00971734 1.5876e-05 0.00973773 1.71314e-07 272.958 
-0.25 -0.85 -0.228105 0.297622 0.00976191 0.00972029 1.09985e-05 0.00974555 1.71403e-07 273.036 
-0.25 -0.83 -0.411914 0.233639 0.00976357 0.00971735 7.77463e-06 0.00974482 1.71393e-07 273.031 
-0.33 -0.81 -0.103978 0.240125 0.00976225 0.00971287 1.30673e-05 0.00974048 1.71433e-07 272.845 
-0.31 -0.81 -0.229226 0.187392 0.00977731 0.00972487 1.40124e-05 0.00975341 1.71494e-07 273.11 
-0.29 -0.81 -0.222203 0.160399 0.00978072 0.00972348 1.00036e-05 0.00975555 1.71555e-07 273.073 
-0.27 -0.81 -0.319303 0.270201 0.00977773 0.00971961 1.28735e-05 0.00975469 1.71544e-07 273.067 
-0.31 -0.79 -0.234414 0.144217 0.00976003 0.00972142 6.74398e-06 0.00974135 1.71469e-07 272.813 
-0.29 -0.79 -0.278453 0.372929 0.00976144 0.00972071 1.20233e-05 0.00974051 1.71509e-07 272.726 
-0.33 -0.77 -0.312131 0.321239 0.00977088 0.00972514 1.68197e-05 0.0097471 1.71525e-07 272.885 
-0.27 -0.79 -0.362889 0.241958 0.00976398 0.00971447 1.11256e-05 0.0097412 1.71436e-07 272.861 
-0.31 -0.77 -0.296967 0.127258 0.0097658 0.00971717 1.16165e-05 0.00974271 1.71511e-07 272.783 
-0.29 -0.77 -0.297821 0.337292 0.00975837 0.00971869 1.03013e-05 0.00974008 1.71547e-07 272.653 
-0.27 -0.77 -0.313585 0.224394 0.00975738 0.00971214 8.29714e-06 0.00973842 1.714e-07 272.84 
-0.31 -0.75 -0.204438 0.364637 0.00976733 0.00972035 1.29934e-05 0.00974966 1.71632e-07 272.786 
-0.29 -0.75 -0.481638 0.324343 0.00976854 0.00972216 1.36076e-05 0.00975054 1.71618e-07 272.833 
-0.27 -0.75 -0.531207 0.4698 0.00976769 0.00970969 1.84485e-05 0.00973749 1.7137e-07 272.862 
-0.49 -0.83 0.017736 0.241287 0.009756 0.00971617 -6.59888e-07 0.00973646 1.71329e-07 272.899 
-0.47 -0.83 -0.122392 0.212466 0.00975676 0.00971834 2.25392e-06 0.00973897 1.71566e-07 272.591 
-0.45 -0.83 -0.138586 0.250534 0.00975649 0.00972265 -7.35523e-07 0.00974244 1.71422e-07 272.918 
-0.49 -0.81 -0.0564529 0.281857 0.00976611 0.00972053 1.20527e-06 0.00974316 1.71486e-07 272.835 
-0.43 -0.83 -0.130749 0.244222 0.00975558 0.00972263 4.77537e-06 0.00974064 1.71423e-07 272.866 
-0.47 -0.81 -0.125331 0.263461 0.00976359 0.00971688 -1.51703e-07 0.00974439 1.71525e-07 272.809 
-0.45 -0.81 -0.0857948 0.248322 0.00976749 0.00972426 2.25376e-06 0.00974553 1.71496e-07 272.887 
-0.49 -0.79 -0.0383835 0.478917 0.00975984 0.0097209 3.56059e-06 0.00973906 1.71395e-07 272.866 
-0.43 -0.81 -0.0367219 0.27148 0.00976228 0.00971342 4.70377e-06 0.00974061 1.71586e-07 272.605 
-0.47 -0.79 -0.0245785 0.14994 0.00975797 0.00971892 -4.73578e-06 0.00974058 1.71413e-07 272.88 
-0.41 -0.81 -0.205009 0.181087 0.00976489 0.00972718 1.03544e-05 0.00975132 1.71587e-07 272.903 
-0.45 -0.79 -0.063093 0.268473 0.00975843 0.00971706 2.75672e-06 0.00973636 1.71432e-07 272.731 
-0.49 -0.77 0.0670386 0.371169 0.00975924 0.00972355 5.91189e-06 0.00974374 1.71383e-07 273.016 
-0.39 -0.81 -0.276997 0.22829 0.00975955 0.00971546 1.37016e-05 0.00974386 1.71569e-07 272.724 
-0.43 -0.79 -0.310133 0.365533 0.00976663 0.00971239 4.14662e-06 0.00973805 1.71528e-07 272.627 
-0.47 -0.77 0.0339448 0.300979 0.00975874 0.00972525 3.54063e-06 0.00974396 1.71436e-07 272.937 
-0.37 -0.81 -0.045503 0.0998058 0.00975751 0.00971895 1.11242e-05 0.00973891 1.7154e-07 272.632 
-0.41 -0.79 -0.265985 0.289551 0.00976795 0.00972457 8.56261e-06 0.00974976 1.71663e-07 272.739 
-0.45 -0.77 -0.229598 0.463808 0.00975715 0.00971217 -4.45516e-06 0.00973416 1.7142e-07 272.688 
-0.35 -0.81 -0.00615556 0.196155 0.00975241 0.00971443 6.71689e-06 0.00973736 1.71425e-07 272.771 
-0.39 -0.79 -0.187968 0.145438 0.0097649 0.00971242 8.77531e-06 0.0097396 1.71546e-07 272.641 
-0.43 -0.77 -0.196418 0.405803 0.00975636 0.00971041 1.95376e-06 0.00973377 1.71424e-07 272.672 
-0.37 -0.79 -0.262062 0.098082 0.00977427 0.00971914 1.21471e-05 0.00974411 1.71564e-07 272.738 
-0.41 -0.77 -0.19568 0.14531 0.00975684 0.00971257 9.35783e-06 0.00973468 1.71361e-07 272.798 
-0.35 -0.79 -0.224834 0.158008 0.00977447 0.00971833 1.35196e-05 0.00974747 1.71586e-07 272.798 
-0.39 -0.77 -0.104299 0.134167 0.00975878 0.00972148 1.17011e-05 0.0097454 1.71593e-07 272.729 
-0.43 -0.75 0.0644592 0.199866 0.00976696 0.00970694 -1.09874e-06 0.00974065 1.71452e-07 272.82 
-0.33 -0.79 -0.255611 0.300967 0.00976339 0.00971581 5.93665e-06 0.0097399 1.71434e-07 272.828 
-0.37 -0.77 -0.117511 0.207045 0.00975975 0.00971598 2.64457e-06 0.00973871 1.71461e-07 272.752 
-0.41 -0.75 -0.0245295 0.339439 0.00976943 0.00970502 6.75373e-06 0.00974381 1.7158e-07 272.705 
-0.35 -0.77 -0.343573 0.277291 0.00976876 0.00971537 8.08925e-06 0.00974155 1.71446e-07 272.854 
-0.39 -0.75 -0.216991 0.183707 0.00977359 0.00972472 7.71881e-06 0.00975111 1.71701e-07 272.717 
-0.49 -0.75 -0.0461644 0.284362 0.00976739 0.0097277 5.65673e-06 0.00975141 1.71495e-07 273.052 
-0.47 -0.75 -0.10015 0.500912 0.0097654 0.0097297 5.29332e-06 0.00974502 1.71419e-07 272.994 
-0.45 -0.75 -0.101779 0.515418 0.00976491 0.00971195 6.45414e-07 0.00973483 1.71463e-07 272.639 
-0.49 -0.73 -0.111108 0.478386 0.00976923 0.00972088 6.68058e-06 0.00974638 1.71432e-07 273.012 
-0.47 -0.73 -0.232566 0.461501 0.00977408 0.00973933 2.65001e-06 0.00975398 1.71453e-07 273.192 
-0.45 -0.73 -0.131014 0.271605 0.0097745 0.00971563 -3.81571e-06 0.00974181 1.7142e-07 272.903 
-0.49 -0.71 -0.0324689 0.629289 0.00977473 0.00972058 -1.04642e-06 0.00974766 1.71556e-07 272.851 
-0.43 -0.73 -0.0751614 0.359022 0.00976534 0.00970283 4.74298e-06 0.00973667 1.71394e-07 272.8 
-0.47 -0.71 -0.0810777 0.487817 0.00977568 0.00973695 2.22716e-06 0.00975597 1.71502e-07 273.17 
-0.37 -0.75 -0.230392 0.168324 0.00976754 0.00971775 1.01548e-05 0.00974019 1.71542e-07 272.663 
-0.41 -0.73 -0.162517 0.356774 0.00976594 0.00970078 5.83011e-07 0.00973702 1.71548e-07 272.566 
-0.45 -0.71 -0.0151734 0.207149 0.00976589 0.00971425 8.76277e-06 0.00973978 1.713e-07 273.037 
-0.49 -0.69 0.0516252 0.606401 0.00976602 0.00971524 -6.8914e-06 0.00974329 1.71444e-07 272.906 
-0.35 -0.75 -0.0600527 0.272342 0.00975936 0.00971022 8.20985e-06 0.00973486 1.71381e-07 272.77 
-0.39 -0.73 -0.174466 0.219394 0.00977075 0.00971559 1.1121e-05 0.00974314 1.71504e-07 272.807 
-0.43 -0.71 -0.205358 0.369617 0.00976545 0.00970646 3.89108e-06 0.00973919 1.71553e-07 272.618 
-0.47 -0.69 0.151966 0.434704 0.00976856 0.00972603 5.33662e-06 0.00974915 1.71417e-07 273.114 
-0.37 -0.73 -0.29578 0.201928 0.00977367 0.00972291 1.07141e-05 0.00974667 1.71565e-07 272.809 
-0.41 -0.71 -0.118944 0.44011 0.00976833 0.0096955 7.82642e-07 0.00973512 1.71642e-07 272.362 
-0.45 -0.69 -0.0782625 0.389905 0.0097774 0.00971345 9.25367e-06 0.00974832 1.71506e-07 272.948 
-0.35 -0.73 -0.524495 0.373222 0.00977226 0.0097117 9.72964e-06 0.00974548 1.71577e-07 272.756 
-0.39 -0.71 -0.186142 0.237181 0.00976845 0.00971621 1.38507e-06 0.00974028 1.71518e-07 272.705 
-0.43 -0.69 -0.129119 0.422051 0.0097787 0.0097158 8.1187e-06 0.00975118 1.71739e-07 272.658 
-0.33 -0.73 -0.348155 0.165922 0.00977125 0.00970754 1.39511e-05 0.00974041 1.71574e-07 272.619 
-0.37 -0.71 -0.121921 0.244646 0.00977091 0.00971646 1.30936e-05 0.0097462 1.71577e-07 272.776 
-0.41 -0.69 -0.114322 0.336606 0.00977063 0.00970155 1.58414e-06 0.00973674 1.71593e-07 272.486 
-0.35 -0.71 -0.239558 0.487418 0.00977046 0.00970773 9.59879e-06 0.00974641 1.71571e-07 272.792 
-0.39 -0.69 -0.103164 0.374535 0.0097634 0.00970404 5.49196e-06 0.00973525 1.71411e-07 272.734 
-0.37 -0.69 -0.321503 0.33458 0.00976247 0.00971372 1.03018e-05 0.00974248 1.71536e-07 272.738 
-0.35 -0.69 -0.28266 0.535934 0.00976234 0.00970542 1.20242e-05 0.00973466 1.71381e-07 272.765 
-0.35 -0.67 -0.239362 0.451738 0.00977213 0.00971505 1.09017e-05 0.00974523 1.71497e-07 272.877 
-0.33 -0.67 -0.362067 0.584797 0.00975724 0.00970364 7.73288e-06 0.00973919 1.71471e-07 272.748 
-0.33 -0.75 -0.108372 0.26086 0.00976026 0.00971648 1.01837e-05 0.00973811 1.71426e-07 272.791 
-0.31 -0.73 -0.420222 0.4884 0.00976874 0.00972431 1.15165e-05 0.00975033 1.71595e-07 272.863 
-0.29 -0.73 -0.355332 0.467283 0.00977195 0.00971414 1.39527e-05 0.00975043 1.71525e-07 272.977 
-0.33 -0.71 -0.521979 0.165855 0.00976761 0.0097117 1.38445e-05 0.00974138 1.71504e-07 272.758 
-0.27 -0.73 -0.474338 0.561041 0.00976669 0.00971737 1.89256e-05 0.00974696 1.71468e-07 272.972 
-0.31 -0.71 -0.40444 0.475329 0.00976571 0.00972409 1.54159e-05 0.00974818 1.71559e-07 272.861 
-0.29 -0.71 -0.481669 0.458684 0.00975887 0.00970753 1.72819e-05 0.00973967 1.71313e-07 273.013 
-0.33 -0.69 -0.280882 0.315957 0.00977414 0.00971231 6.61352e-06 0.00974634 1.71649e-07 272.666 
-0.27 -0.71 -0.387705 0.468666 0.00976544 0.00971369 1.2752e-05 0.00974139 1.71331e-07 273.033 
-0.31 -0.69 -0.551026 0.47352 0.00977877 0.00971764 1.60282e-05 0.00975066 1.71579e-07 272.897 
-0.29 -0.69 -0.54106 0.541087 0.00977764 0.00971331 1.84949e-05 0.00975056 1.71511e-07 273.003 
-0.27 -0.69 -0.578568 0.372694 0.00977429 0.00971766 1.31799e-05 0.00974595 1.71372e-07 273.095 
-0.31 -0.67 -0.410643 0.56528 0.00975575 0.00971314 1.28383e-05 0.00973844 1.71439e-07 272.779 
-0.29 -0.67 -0.438763 0.465504 0.00976296 0.00971311 1.63843e-05 0.00974209 1.71315e-07 273.078 
-0.41 -0.83 -0.178905 0.0802975 0.00975751 0.00972451 1.01029e-05 0.00974214 1.71556e-07 272.696 
-0.39 -0.83 -0.172308 0.289364 0.00975594 0.00971734 5.95952e-06 0.00973505 1.71447e-07 272.67 
-0.37 -0.83 -0.204678 0.226817 0.00975246 0.00971804 6.3256e-06 0.00973597 1.71293e-07 272.942 
-0.35 -0.83 -0.32592 0.0820139 0.00975818 0.00971595 1.59033e-05 0.00973676 1.71383e-07 272.82 
-0.33 -0.83 -0.221097 0.329051 0.00975775 0.00972486 1.47831e-05 0.00973954 1.71283e-07 273.057 
-0.31 -0.83 -0.137598 -0.0886183 0.00975251 0.00971487 1.93566e-05 0.00974162 1.71464e-07 272.828 
-0.29 -0.83 -0.246124 0.207888 0.00975946 0.00971979 1.677e-05 0.00974622 1.71356e-07 273.128 
-0.27 -0.83 -0.30063 0.280966 0.00976081 0.00971719 7.56799e-06 0.00974586 1.71398e-07 273.052 
-0.27 -0.67 -0.476784 0.49314 0.00976161 0.0097192 1.81181e-05 0.00974254 1.71373e-07 272.999 
-0.25 -0.67 -0.549293 0.419062 0.00976955 0.00971792 1.16694e-05 0.00975047 1.71396e-07 273.184 
-0.25 -0.81 -0.269471 0.347615 0.00976458 0.00971585 7.11949e-06 0.00974439 1.71416e-07 272.981 
-0.25 -0.79 -0.262021 0.212514 0.00976974 0.0097232 2.00075e-05 0.00974497 1.71423e-07 272.987 
-0.35 -0.55 -0.226484 0.785129 0.00978345 0.00970999 7.08864e-06 0.00974531 1.71447e-07 272.958 
-0.39 -0.53 -0.245212 0.87495 0.00977607 0.00969232 5.32288e-06 0.00973697 1.71447e-07 272.724 
-0.37 -0.57 -0.253658 0.788693 0.00977025 0.00970443 1.16323e-05 0.00974416 1.71327e-07 273.117 
-0.41 -0.55 -0.226613 0.927108 0.00976289 0.0096987 7.21829e-06 0.00973738 1.71415e-07 272.787 
-0.45 -0.53 -0.0935935 0.598054 0.00976228 0.00969709 -3.32665e-06 0.00972934 1.71309e-07 272.731 
-0.35 -0.57 -0.239187 0.763493 0.00977712 0.0097023 1.75832e-05 0.00974393 1.71457e-07 272.903 
-0.39 -0.55 -0.33284 0.72384 0.00976546 0.00968987 4.2201e-06 0.00973635 1.71358e-07 272.85 
-0.43 -0.53 -0.198412 0.87763 0.00976749 0.00969092 3.36664e-06 0.00973172 1.71406e-07 272.643 
-0.47 -0.51 -0.0529777 0.776244 0.00977272 0.00970241 -3.01142e-06 0.00974129 1.7154e-07 272.698 
-0.37 -0.55 -0.258782 0.754179 0.00976887 0.00969559 9.38032e-06 0.00973926 1.71285e-07 273.046 
-0.41 -0.53 -0.249978 0.764735 0.00977302 0.00969925 5.12614e-06 0.0097367 1.7145e-07 272.713 
-0.45 -0.51 -0.277561 0.729182 0.00976888 0.00969255 2.76261e-06 0.00973563 1.71459e-07 272.668 
-0.37 -0.53 -0.298042 0.72942 0.00977875 0.00969705 -1.09157e-06 0.00974035 1.71494e-07 272.744 
-0.41 -0.51 -0.266468 0.803552 0.00976295 0.00969885 -1.09118e-06 0.00973377 1.71377e-07 272.746 
-0.35 -0.53 -0.368766 0.771104 0.00977505 0.00970437 8.77815e-06 0.00974184 1.71493e-07 272.788 
-0.39 -0.51 -0.367024 0.870163 0.00977123 0.00969323 -5.88711e-07 0.00973356 1.71424e-07 272.665 
-0.37 -0.51 -0.364764 0.749056 0.00977071 0.00969134 4.45429e-06 0.00973106 1.71306e-07 272.783 
-0.35 -0.51 -0.414428 0.834491 0.00976816 0.00969891 1.10603e-05 0.00972754 1.71326e-07 272.652 
-0.49 -0.65 -0.0597933 0.483136 0.00977362 0.00972188 7.93448e-06 0.00974979 1.71505e-07 272.992 
-0.47 -0.65 -0.0771657 0.419111 0.00976999 0.00971331 3.08886e-08 0.00974644 1.71465e-07 272.962 
-0.45 -0.65 -0.0395712 0.623932 0.00976562 0.00971704 6.50246e-06 0.00974616 1.71632e-07 272.688 
-0.49 -0.63 0.0509197 0.440228 0.00976958 0.00972533 3.86005e-06 0.00975319 1.7176e-07 272.681 
-0.43 -0.65 -0.00238883 0.578789 0.00975757 0.00969867 4.93282e-06 0.00973482 1.71428e-07 272.694 
-0.47 -0.63 0.0466967 0.535038 0.00976507 0.0097077 2.44841e-06 0.00974272 1.71589e-07 272.66 
-0.41 -0.65 0.00895639 0.545526 0.00976224 0.00970471 9.68766e-06 0.0097367 1.71444e-07 272.722 
-0.45 -0.63 -0.0527217 0.600626 0.00977159 0.00971691 7.51101e-06 0.00974881 1.71633e-07 272.76 
-0.49 -0.61 -0.0419843 0.525489 0.00975733 0.00971106 -4.69526e-06 0.00973971 1.71385e-07 272.899 
-0.39 -0.65 -0.0971447 0.42987 0.00975935 0.0097139 8.22876e-06 0.0097375 1.71305e-07 272.965 
-0.43 -0.63 -0.104987 0.589364 0.00977579 0.00970532 8.33368e-06 0.00974263 1.71329e-07 273.07 
-0.47 -0.61 -0.118247 0.504064 0.00976537 0.00971344 7.64884e-06 0.00974424 1.71489e-07 272.862 
-0.37 -0.65 -0.238277 0.470364 0.0097588 0.00969972 3.41091e-06 0.00972711 1.71125e-07 272.96 
-0.41 -0.63 -0.134375 0.58873 0.00976991 0.00969484 3.10021e-06 0.00973516 1.71354e-07 272.822 
-0.45 -0.61 -0.0673958 0.679827 0.00976366 0.00970896 -2.16135e-06 0.00973876 1.71377e-07 272.887 
-0.49 -0.59 0.00201402 0.496031 0.00977031 0.00970557 -6.22432e-06 0.00974609 1.71619e-07 272.706 
-0.35 -0.65 -0.313362 0.472896 0.00976641 0.00971243 1.23723e-05 0.00973806 1.71407e-07 272.819 
-0.39 -0.63 -0.101524 0.496511 0.00977771 0.00971761 1.30747e-05 0.00974785 1.71535e-07 272.889 
-0.43 -0.61 0.00798298 0.641551 0.00977153 0.00970795 4.3525e-06 0.00974186 1.71367e-07 272.989 
-0.47 -0.59 0.0864546 0.535089 0.00977673 0.00971121 -5.2274e-06 0.00974659 1.71487e-07 272.93 
-0.37 -0.63 -0.193109 0.500198 0.00976497 0.00969986 1.14164e-05 0.00973103 1.71222e-07 272.916 
-0.41 -0.61 -0.117994 0.562423 0.00977195 0.00969883 1.07548e-05 0.00973562 1.71272e-07 272.965 
-0.45 -0.59 0.0912422 0.5429 0.00977769 0.00971186 3.37582e-06 0.00975027 1.71499e-07 273.015 
-0.49 -0.57 -0.0594007 0.488637 0.00978014 0.00971086 -3.92364e-06 0.00974954 1.71545e-07 272.921 
-0.35 -0.63 -0.363272 0.6052 0.00975882 0.00970153 1.18652e-05 0.00973064 1.71283e-07 272.809 
-0.39 -0.61 -0.134114 0.468731 0.0097701 0.00970571 8.06653e-06 0.00973823 1.71349e-07 272.916 
-0.43 -0.59 -0.018515 0.773188 0.00976921 0.00969866 5.76001e-06 0.00974349 1.71501e-07 272.822 
-0.47 -0.57 -0.118004 0.481744 0.0097693 0.00970445 -4.7461e-06 0.00973441 1.7131e-07 272.87 
-0.37 -0.61 -0.180513 0.709677 0.00977452 0.00970594 1.43195e-05 0.00974055 1.71497e-07 272.745 
-0.41 -0.59 -0.0546325 0.615768 0.00977518 0.00970059 4.86859e-06 0.0097383 1.71376e-07 272.874 
-0.45 -0.57 -0.114283 0.665445 0.00976845 0.00970219 2.71401e-06 0.00973759 1.71358e-07 272.884 
-0.49 -0.55 -0.068064 0.628143 0.00975318 0.00970563 -5.8977e-06 0.00973266 1.71286e-07 272.86 
-0.35 -0.61 -0.218754 0.63605 0.00977117 0.00970028 1.20365e-05 0.00973267 1.71342e-07 272.771 
-0.39 -0.59 -0.116049 0.616827 0.00977227 0.0096931 9.80631e-06 0.00973637 1.71339e-07 272.879 
-0.43 -0.57 0.00566907 0.755006 0.00977372 0.00969834 6.15733e-06 0.00974117 1.71382e-07 272.946 
-0.47 -0.55 -0.184796 0.6334 0.00976365 0.00969561 1.39255e-06 0.00973486 1.71405e-07 272.732 
-0.33 -0.61 -0.391892 0.599058 0.00976508 0.00970046 1.7628e-05 0.00973505 1.71262e-07 272.965 
-0.37 -0.59 -0.215007 0.685331 0.00977638 0.0097138 1.89133e-05 0.00974779 1.71531e-07 272.894 
-0.41 -0.57 -0.0786375 0.673278 0.00976695 0.00969871 1.14891e-05 0.00973723 1.71248e-07 273.049 
-0.45 -0.55 -0.207438 0.537817 0.00976306 0.00970184 3.23475e-06 0.00973198 1.71267e-07 272.871 
-0.49 -0.53 0.0388842 0.676342 0.00976248 0.0096962 -3.67172e-06 0.00973626 1.71299e-07 272.94 
-0.35 -0.59 -0.341765 0.746147 0.00976826 0.00969479 1.54607e-05 0.00972837 1.71329e-07 272.671 
-0.39 -0.57 -0.225799 0.765467 0.00976799 0.00968748 9.29011e-06 0.00973324 1.71175e-07 273.054 
-0.43 -0.55 -0.20633 0.628681 0.00976108 0.00969271 8.69063e-06 0.00973207 1.71359e-07 272.728 
-0.47 -0.53 0.00653252 0.607765 0.00975612 0.00969739 6.62942e-07 0.00972698 1.71213e-07 272.816 
-0.29 -0.57 -0.588994 0.700397 0.0097741 0.00971402 1.86362e-05 0.00974647 1.7145e-07 272.985 
-0.33 -0.55 -0.412488 0.882212 0.00978344 0.00971062 9.05629e-06 0.00974914 1.71472e-07 273.026 
-0.29 -0.61 -0.378631 0.628998 0.00976983 0.00971837 1.03968e-05 0.00974423 1.71614e-07 272.662 
-0.33 -0.59 -0.330034 0.810628 0.00976842 0.00970509 1.40424e-05 0.00973846 1.71341e-07 272.935 
-0.27 -0.61 -0.447734 0.552736 0.00977803 0.00971309 1.41374e-05 0.00974605 1.71587e-07 272.756 
-0.31 -0.59 -0.438873 0.642333 0.00977076 0.00971272 1.00575e-05 0.00974024 1.7142e-07 272.858 
-0.29 -0.59 -0.387956 0.524385 0.00977647 0.00972028 1.08503e-05 0.00974598 1.71574e-07 272.775 
-0.33 -0.57 -0.364811 0.753974 0.00978083 0.00971401 9.32492e-06 0.00974788 1.7139e-07 273.12 
-0.27 -0.59 -0.470345 0.695482 0.00976921 0.00970755 1.34424e-05 0.00973943 1.71488e-07 272.728 
-0.31 -0.57 -0.401853 0.716092 0.00978008 0.00970851 6.24665e-06 0.00974405 1.71499e-07 272.84 
-0.27 -0.57 -0.630066 0.725228 0.00976733 0.00970751 2.39278e-05 0.00974666 1.71537e-07 272.852 
-0.31 -0.55 -0.405956 0.939009 0.00977412 0.00970976 1.83498e-05 0.00974369 1.71423e-07 272.951 
-0.29 -0.55 -0.545712 0.684339 0.00976268 0.00969533 2.19895e-05 0.00973086 1.71186e-07 272.969 
-0.33 -0.53 -0.292496 1.06167 0.00977322 0.00969882 1.44402e-05 0.00973814 1.71345e-07 272.92 
-0.27 -0.55 -0.427013 0.58913 0.00976725 0.00971314 2.06263e-05 0.00974181 1.71414e-07 272.912 
-0.31 -0.53 -0.410464 0.836498 0.00977195 0.00970497 2.41367e-05 0.0097418 1.71474e-07 272.818 
-0.29 -0.53 -0.306721 0.667565 0.00978211 0.00970099 1.88468e-05 0.00974657 1.71471e-07 272.956 
-0.33 -0.51 -0.270795 0.91937 0.00976544 0.00969217 1.63596e-05 0.00973038 1.7112e-07 273.06 
-0.27 -0.53 -0.470724 0.762501 0.00977933 0.00971171 2.23482e-05 0.00974295 1.71509e-07 272.794 
-0.31 -0.51 -0.253441 0.89431 0.00976983 0.00970455 1.76005e-05 0.009733 1.7132e-07 272.816 
-0.29 -0.51 -0.456014 0.838051 0.00976377 0.00970006 2.27315e-05 0.00973814 1.71431e-07 272.782 
-0.27 -0.51 -0.56787 0.944039 0.00976088 0.00970394 2.70852e-05 0.00973742 1.71369e-07 272.861 
-0.33 -0.65 -0.335895 0.50339 0.00976674 0.00970607 1.77167e-05 0.00973653 1.71295e-07 272.954 
-0.31 -0.65 -0.233738 0.602226 0.00976419 0.00971359 1.28446e-05 0.00974069 1.71341e-07 272.998 
-0.29 -0.65 -0.382862 0.572761 0.00975767 0.00970469 1.38224e-05 0.00973263 1.71224e-07 272.958 
-0.33 -0.63 -0.324171 0.522494 0.0097629 0.00970955 1.03519e-05 0.00973892 1.71369e-07 272.903 
-0.27 -0.65 -0.46495 0.500559 0.00976781 0.00972436 1.18941e-05 0.0097462 1.71474e-07 272.94 
-0.31 -0.63 -0.486729 0.66769 0.00976109 0.00970636 1.7642e-05 0.00973753 1.71305e-07 272.967 
-0.25 -0.65 -0.561242 0.432271 0.00976287 0.0097156 1.31068e-05 0.00974094 1.71458e-07 272.818 
-0.29 -0.63 -0.508074 0.512074 0.00976916 0.00971835 1.22862e-05 0.00974392 1.71508e-07 272.823 
-0.27 -0.63 -0.44643 0.581649 0.00975851 0.00971591 1.41346e-05 0.00973669 1.7145e-07 272.711 
-0.31 -0.61 -0.438019 0.629919 0.00977136 0.00971305 1.41702e-05 0.00974535 1.71567e-07 272.768 
-0.49 -0.67 0.0763733 0.504958 0.00976754 0.00971482 -5.46371e-06 0.00974128 1.71463e-07 272.82 
-0.47 -0.67 0.067214 0.404965 0.00976616 0.00971991 2.84824e-07 0.00974345 1.71478e-07 272.856 
-0.45 -0.67 0.126156 0.557302 0.00976447 0.00971406 3.01161e-06 0.00974577 1.71517e-07 272.86 