ITEM: TIMESTEP
1044500
ITEM: NUMBER OF CELLS
5000
ITEM: BOX BOUNDS ss ss pp
-0.5 0.5
-1 1
-0.5 0.5
ITEM: CELLS xc yc f_U[*] f_V[*] f_Tau[1] f_Tau[2] f_Tau[3] f_Press[*] f_Mrho[*] f_Ttra[*] 
-0.49 -0.99 -0.0252156 0.0943541 0.00976417 0.00973522 9.55145e-06 0.00975118 1.71555e-07 272.951 
-0.47 -0.99 -0.132163 0.0283627 0.00974979 0.00971909 8.15558e-06 0.00973767 1.7143e-07 272.772 
-0.45 -0.99 -0.280121 0.0153517 0.00975172 0.00973048 6.25706e-06 0.00974482 1.71441e-07 272.954 
-0.49 -0.97 -0.0468783 0.142132 0.00974531 0.00972366 1.27283e-05 0.00973417 1.7134e-07 272.817 
-0.43 -0.99 -0.295344 -0.0480887 0.00974475 0.0097245 4.71014e-06 0.00973939 1.71323e-07 272.989 
-0.47 -0.97 -0.109039 0.117696 0.00974777 0.00972239 1.44069e-05 0.00973929 1.71378e-07 272.899 
-0.41 -0.99 -0.116396 -0.070831 0.00974202 0.00973126 1.38952e-06 0.00974004 1.71339e-07 272.983 
-0.45 -0.97 -0.0423508 0.0614168 0.00974621 0.00973571 5.55096e-06 0.00974611 1.7146e-07 272.96 
-0.49 -0.95 0.0472672 0.0930758 0.00973312 0.00971331 3.34437e-06 0.00973022 1.71231e-07 272.88 
-0.39 -0.99 -0.166361 0.0852344 0.0097447 0.0097273 1.76344e-06 0.00973652 1.7117e-07 273.154 
-0.43 -0.97 -0.00325502 0.059256 0.0097498 0.00972563 1.77562e-06 0.00974294 1.71382e-07 272.995 
-0.47 -0.95 0.109201 0.104816 0.00975053 0.00972808 -6.50428e-08 0.00974013 1.71384e-07 272.913 
-0.37 -0.99 -0.171305 -0.0317111 0.00974244 0.00972971 8.30389e-06 0.00973813 1.71308e-07 272.978 
-0.41 -0.97 -0.197923 -0.166331 0.00974569 0.00973008 5.32366e-06 0.00974051 1.71375e-07 272.938 
-0.45 -0.95 0.21296 -0.0460546 0.00975827 0.00973988 6.52278e-06 0.00975551 1.71606e-07 272.99 
-0.49 -0.93 -0.00804157 0.0559075 0.0097695 0.00972387 -1.085e-06 0.00975055 1.71526e-07 272.98 
-0.35 -0.99 -0.108227 -0.103441 0.00973471 0.00970883 4.86418e-06 0.00971832 1.71059e-07 272.82 
-0.39 -0.97 -0.0466602 0.0276357 0.00974095 0.00972584 7.04961e-06 0.00973987 1.7142e-07 272.848 
-0.43 -0.95 0.149734 0.0904791 0.00975831 0.00972236 7.2956e-06 0.00974681 1.715e-07 272.916 
-0.47 -0.93 0.019493 0.0314605 0.00975946 0.00972288 2.93208e-07 0.00974471 1.71502e-07 272.854 
-0.33 -0.99 -0.0712024 0.0471337 0.0097333 0.0097269 6.14809e-06 0.00972681 1.7123e-07 272.786 
-0.37 -0.97 -0.00631783 -0.113016 0.00973912 0.00972845 5.64034e-06 0.00974106 1.71327e-07 273.031 
-0.41 -0.95 0.0476409 0.0605271 0.00975751 0.00973026 3.99458e-06 0.00974461 1.71543e-07 272.785 
-0.45 -0.93 -0.0674695 0.0633268 0.00975569 0.00973253 5.02637e-06 0.00974534 1.71528e-07 272.83 
-0.49 -0.91 -0.0184992 0.164556 0.0097741 0.00972897 1.19873e-05 0.00975472 1.71488e-07 273.157 
-0.35 -0.97 -0.019827 -0.0211209 0.00973769 0.00971121 9.94491e-06 0.00972909 1.7116e-07 272.96 
-0.39 -0.95 -0.152615 -0.0706712 0.00975461 0.00972545 8.0704e-06 0.00974035 1.71495e-07 272.744 
-0.43 -0.93 -0.0795129 0.0914087 0.00975476 0.00972612 3.50491e-06 0.0097377 1.7141e-07 272.804 
-0.47 -0.91 -0.234785 0.037532 0.00976442 0.00972443 7.15824e-06 0.00974411 1.71507e-07 272.829 
-0.33 -0.97 -0.0984146 0.020019 0.00974254 0.00972427 5.03839e-06 0.0097387 1.7144e-07 272.784 
-0.37 -0.95 -0.131628 -0.0997684 0.00975567 0.00972219 1.19616e-05 0.00974332 1.71326e-07 273.095 
-0.41 -0.93 -0.0311456 0.0731057 0.00975274 0.00972489 1.07984e-05 0.00973299 1.7128e-07 272.88 
-0.45 -0.91 -0.0707972 0.00956838 0.00976496 0.0097268 6.10914e-06 0.0097511 1.71529e-07 272.99 
-0.49 -0.89 -0.000733357 0.145942 0.00976812 0.00972835 1.15603e-05 0.00974963 1.71448e-07 273.078 
-0.35 -0.95 -0.0956064 0.0177826 0.00975634 0.00971868 5.21605e-06 0.00974141 1.71383e-07 272.95 
-0.39 -0.93 0.0644723 -0.0666874 0.00975069 0.00972534 7.89501e-06 0.00974057 1.71566e-07 272.635 
-0.43 -0.91 -0.113683 0.0504231 0.00976073 0.00973125 9.3377e-06 0.00974322 1.71344e-07 273.063 
-0.47 -0.89 0.101788 0.128229 0.00976916 0.0097304 8.59988e-06 0.0097485 1.71587e-07 272.825 
-0.37 -0.93 -0.0105638 -0.00304924 0.00975404 0.00972199 3.39411e-06 0.00974465 1.71407e-07 273.003 
-0.41 -0.91 -0.0340756 0.0115502 0.00976717 0.00971711 4.56077e-06 0.00974115 1.71367e-07 272.969 
-0.45 -0.89 -0.0731062 0.128861 0.00976143 0.00972116 4.17895e-06 0.00974396 1.71435e-07 272.939 
-0.49 -0.87 -0.0331138 0.169999 0.0097519 0.00971636 -5.96287e-07 0.00973323 1.71287e-07 272.875 
-0.35 -0.93 -0.324607 0.0605953 0.00975677 0.0097203 1.02733e-05 0.00973852 1.7143e-07 272.794 
-0.39 -0.91 -0.0821741 -0.0674943 0.0097702 0.00973063 1.19359e-05 0.00975402 1.71718e-07 272.771 
-0.43 -0.89 -0.156079 0.0228922 0.00976781 0.00973796 6.30809e-06 0.00975306 1.71495e-07 273.098 
-0.47 -0.87 0.0960364 0.121634 0.00975983 0.00973164 9.60028e-06 0.00974161 1.7139e-07 272.945 
-0.37 -0.91 -0.239202 0.235642 0.00975712 0.00972078 1.14255e-05 0.00973924 1.71597e-07 272.549 
-0.41 -0.89 -0.164005 -0.0335367 0.00976098 0.00971344 4.53829e-06 0.00974162 1.71506e-07 272.762 
-0.45 -0.87 -0.111437 0.175434 0.00976654 0.00972168 9.2295e-06 0.0097497 1.71497e-07 273.001 
-0.49 -0.85 -0.0511257 0.154761 0.00975295 0.00971343 4.61014e-08 0.00973111 1.71195e-07 272.961 
-0.35 -0.91 -0.111963 0.104732 0.00974967 0.00972133 3.60065e-06 0.0097353 1.71406e-07 272.743 
-0.39 -0.89 -0.110682 0.120414 0.00975594 0.00971981 1.2175e-05 0.00974612 1.71531e-07 272.847 
-0.43 -0.87 -0.0885744 0.136573 0.00975502 0.00973789 1.11494e-05 0.00974911 1.71551e-07 272.899 
-0.47 -0.85 -0.113103 0.191236 0.0097551 0.00972473 1.53046e-06 0.00974477 1.71353e-07 273.092 
-0.33 -0.91 -0.169369 -0.0470829 0.00975583 0.00971779 1.27541e-05 0.0097396 1.71443e-07 272.805 
-0.37 -0.89 -0.171566 0.0956253 0.00976365 0.00973141 1.65974e-05 0.00975506 1.7168e-07 272.86 
-0.41 -0.87 -0.197212 -0.0330085 0.00975709 0.00971597 8.45078e-06 0.00973816 1.7153e-07 272.625 
-0.45 -0.85 -0.0839435 0.185254 0.00975899 0.00971875 7.34261e-06 0.00974373 1.71343e-07 273.08 
-0.35 -0.89 -0.213419 0.116842 0.00976636 0.00972032 1.11073e-05 0.00974 1.71457e-07 272.793 
-0.39 -0.87 -0.273879 0.110707 0.00976484 0.00971526 6.61354e-06 0.00974342 1.7155e-07 272.742 
-0.43 -0.85 -0.195017 0.152681 0.00976934 0.0097385 7.15939e-06 0.00974897 1.71623e-07 272.781 
-0.37 -0.87 -0.3394 0.207125 0.00977082 0.00973044 8.8627e-06 0.00975419 1.71654e-07 272.877 
-0.41 -0.85 -0.152707 0.0936444 0.00977101 0.00971963 9.11799e-06 0.00974746 1.7162e-07 272.744 
-0.35 -0.87 -0.320053 0.0824044 0.00976796 0.00972171 1.15165e-05 0.00974347 1.71451e-07 272.901 
-0.39 -0.85 -0.266932 0.313853 0.00976935 0.00971692 2.7927e-06 0.00974904 1.71575e-07 272.858 
-0.33 -0.87 -0.318843 0.0968221 0.00976337 0.00972063 1.27631e-05 0.00974413 1.71507e-07 272.83 
-0.37 -0.85 -0.339063 0.0899213 0.00976787 0.00972402 1.05622e-05 0.00974827 1.7153e-07 272.909 
-0.35 -0.85 -0.261335 0.100346 0.00976709 0.00971914 1.33837e-05 0.00974384 1.71388e-07 273.011 
-0.33 -0.85 -0.395928 0.25609 0.00976762 0.00972384 1.35618e-05 0.00974267 1.71425e-07 272.919 
-0.31 -0.99 -0.0155449 -0.0192703 0.00972859 0.00971338 1.46392e-05 0.00971919 1.71182e-07 272.648 
-0.29 -0.99 -0.106959 0.0577436 0.00972936 0.00971765 9.79514e-06 0.00972974 1.71198e-07 272.918 
-0.27 -0.99 -0.157949 0.0136261 0.00974273 0.00972705 6.8771e-06 0.00973412 1.71187e-07 273.059 
-0.31 -0.97 -0.348495 0.0194477 0.00974804 0.00971853 5.54702e-06 0.00973592 1.71384e-07 272.795 
-0.29 -0.97 -0.407238 0.213714 0.00975627 0.00972007 7.83004e-06 0.00974834 1.71526e-07 272.917 
-0.33 -0.95 -0.114621 0.137186 0.00975253 0.0097208 9.74052e-06 0.00973859 1.71329e-07 272.958 
-0.27 -0.97 -0.306174 -0.077556 0.00974469 0.00972072 1.04327e-05 0.00973779 1.71363e-07 272.882 
-0.31 -0.95 -0.182983 0.246272 0.00974963 0.00972061 7.43445e-06 0.00973357 1.71315e-07 272.839 
-0.29 -0.95 -0.138923 0.0981351 0.00974268 0.00970909 8.61483e-06 0.0097257 1.71249e-07 272.724 
-0.33 -0.93 -0.258228 0.150994 0.00975769 0.0097175 4.07777e-06 0.00973661 1.71314e-07 272.926 
-0.27 -0.95 -0.328189 -0.0707353 0.00974763 0.00972669 6.70503e-06 0.00973867 1.71335e-07 272.951 
-0.31 -0.93 -0.0735827 0.0973398 0.00975862 0.00971867 9.75586e-06 0.00974 1.71564e-07 272.623 
-0.29 -0.93 -0.161138 0.247226 0.00976067 0.00971274 8.70408e-06 0.00973924 1.71466e-07 272.757 
-0.27 -0.93 -0.18947 0.10583 0.00975976 0.0097218 9.11082e-06 0.00974412 1.71506e-07 272.831 
-0.31 -0.91 -0.195385 0.196121 0.0097554 0.00971809 9.87806e-06 0.00974056 1.71486e-07 272.763 
-0.29 -0.91 -0.225941 0.159957 0.00975304 0.00971412 3.05078e-06 0.00973361 1.71404e-07 272.699 
-0.33 -0.89 -0.244194 0.021862 0.00975801 0.00972051 6.23917e-06 0.00974234 1.71445e-07 272.878 
-0.27 -0.91 -0.0922668 0.159116 0.00975628 0.00971925 6.09654e-06 0.00973654 1.71465e-07 272.684 
-0.31 -0.89 -0.213241 0.212137 0.00976173 0.00971992 3.81058e-06 0.00974705 1.71561e-07 272.825 
-0.29 -0.89 -0.159469 0.0620589 0.00976027 0.00971571 9.09645e-06 0.00974347 1.71377e-07 273.017 
-0.27 -0.89 -0.296571 0.285732 0.00975136 0.00971517 9.9823e-06 0.0097411 1.71425e-07 272.875 
-0.31 -0.87 -0.449279 0.204003 0.00975864 0.00972211 7.75297e-06 0.00974064 1.71459e-07 272.809 
-0.29 -0.87 -0.44591 0.133253 0.00975409 0.00970849 9.56019e-06 0.00973704 1.713e-07 272.96 
-0.27 -0.87 -0.408756 0.273244 0.00975697 0.00971823 1.5327e-05 0.00974158 1.7141e-07 272.912 
-0.31 -0.85 -0.387141 0.0483752 0.0097645 0.0097247 1.63738e-05 0.00974742 1.71507e-07 272.921 
-0.29 -0.85 -0.236578 0.194364 0.00975564 0.00970625 1.31434e-05 0.00973958 1.71367e-07 272.925 
-0.27 -0.85 -0.259186 0.165134 0.00975459 0.00971763 1.09462e-05 0.00973913 1.71189e-07 273.196 
-0.25 -0.99 -0.268411 0.0841 0.00974785 0.00973786 1.15779e-05 0.0097463 1.71425e-07 273.02 
-0.25 -0.97 -0.17016 0.0804074 0.00974314 0.00973091 9.03048e-06 0.00974111 1.71451e-07 272.835 
-0.25 -0.95 -0.42137 0.0465352 0.00974689 0.00973035 9.63503e-06 0.00974157 1.71382e-07 272.957 
-0.25 -0.93 -0.224318 0.0530359 0.0097594 0.00973299 1.25329e-05 0.00974467 1.71557e-07 272.765 
-0.25 -0.91 -0.272425 0.10549 0.00975575 0.00973014 1.02984e-05 0.00974502 1.71576e-07 272.745 
-0.25 -0.89 -0.307689 0.223537 0.00974971 0.00972254 1.55512e-05 0.00973753 1.71355e-07 272.886 
-0.25 -0.87 -0.396022 0.230601 0.00975222 0.00971673 1.6094e-05 0.00973893 1.71316e-07 272.988 
-0.25 -0.85 -0.212763 0.301674 0.00976223 0.00971956 1.02202e-05 0.00974569 1.71391e-07 273.057 
-0.25 -0.83 -0.424946 0.257816 0.00975927 0.00971549 8.16495e-06 0.00974171 1.71349e-07 273.014 
-0.33 -0.81 -0.0876673 0.213596 0.00976213 0.00971295 1.34267e-05 0.00973985 1.71447e-07 272.805 
-0.31 -0.81 -0.207983 0.160763 0.00977756 0.00972413 1.36867e-05 0.00975336 1.71486e-07 273.122 
-0.29 -0.81 -0.256047 0.129401 0.00977928 0.00972439 1.18151e-05 0.00975604 1.71549e-07 273.096 
-0.27 -0.81 -0.323667 0.288563 0.00977578 0.0097176 1.28382e-05 0.00975281 1.71502e-07 273.081 
-0.31 -0.79 -0.250388 0.149828 0.00975766 0.00972013 8.36374e-06 0.00974018 1.71453e-07 272.805 
-0.29 -0.79 -0.317485 0.341822 0.00976022 0.00972113 1.23303e-05 0.00974021 1.71492e-07 272.743 
-0.33 -0.77 -0.320021 0.299021 0.00977039 0.00972474 1.82191e-05 0.00974638 1.71521e-07 272.871 
-0.27 -0.79 -0.412822 0.253398 0.00976328 0.00971339 1.31162e-05 0.00974125 1.71417e-07 272.892 
-0.31 -0.77 -0.287093 0.127568 0.009767 0.00971822 1.31424e-05 0.00974364 1.71515e-07 272.803 
-0.29 -0.77 -0.287657 0.348272 0.00975937 0.00971813 1.10123e-05 0.00974108 1.71578e-07 272.631 
-0.27 -0.77 -0.328007 0.251392 0.00975716 0.00971106 1.0331e-05 0.00973825 1.71404e-07 272.828 
-0.31 -0.75 -0.188405 0.335156 0.00976564 0.00972062 1.30844e-05 0.00974988 1.71628e-07 272.798 
-0.29 -0.75 -0.478683 0.34173 0.00976593 0.0097205 1.60177e-05 0.00974981 1.71599e-07 272.842 
-0.27 -0.75 -0.497991 0.497064 0.00976554 0.00970915 1.86146e-05 0.0097363 1.71359e-07 272.846 
-0.49 -0.83 -0.0118315 0.260013 0.00975421 0.00971673 -1.24544e-06 0.00973626 1.71327e-07 272.896 
-0.47 -0.83 -0.120829 0.17278 0.00975462 0.00972125 2.33223e-06 0.00973933 1.71588e-07 272.566 
-0.45 -0.83 -0.132472 0.265544 0.00975532 0.00972111 -8.87737e-07 0.00974038 1.71425e-07 272.855 
-0.49 -0.81 -0.0399447 0.291713 0.00976496 0.00972102 4.39094e-07 0.00974386 1.71486e-07 272.855 
-0.43 -0.83 -0.119262 0.221046 0.00975547 0.00972468 3.64272e-06 0.00974101 1.71469e-07 272.803 
-0.47 -0.81 -0.101197 0.2237 0.00976546 0.00971926 -1.29889e-06 0.00974712 1.71548e-07 272.848 
-0.45 -0.81 -0.0617584 0.275778 0.00976915 0.00972385 1.68527e-06 0.00974565 1.71507e-07 272.872 
-0.49 -0.79 -0.0536185 0.467682 0.00976019 0.00972375 3.41499e-06 0.00974136 1.71446e-07 272.85 
-0.43 -0.81 -0.0673943 0.267329 0.00976357 0.00971414 3.5248e-06 0.00974162 1.71605e-07 272.604 
-0.47 -0.79 -0.0313615 0.111565 0.00975536 0.0097186 -5.18992e-06 0.00973924 1.71401e-07 272.861 
-0.41 -0.81 -0.226279 0.189065 0.00976585 0.00972856 1.00971e-05 0.00975278 1.71598e-07 272.928 
-0.45 -0.79 -0.0208656 0.299138 0.00975627 0.00971871 2.15684e-06 0.00973604 1.71427e-07 272.731 
-0.49 -0.77 0.0670983 0.392833 0.00975835 0.00972481 5.24846e-06 0.00974434 1.71406e-07 272.996 
-0.39 -0.81 -0.283146 0.224111 0.00975844 0.00971435 1.44335e-05 0.00974269 1.71565e-07 272.697 
-0.43 -0.79 -0.284922 0.391646 0.00976503 0.00971227 3.3386e-06 0.00973775 1.71496e-07 272.668 
-0.47 -0.77 -0.000604998 0.269497 0.00975864 0.00972529 3.19551e-06 0.00974493 1.71415e-07 272.999 
-0.37 -0.81 -0.0434701 0.10964 0.00975764 0.009719 1.05096e-05 0.00973849 1.71537e-07 272.624 
-0.41 -0.79 -0.28401 0.300232 0.00976705 0.00972399 8.74516e-06 0.00974981 1.71659e-07 272.748 
-0.45 -0.77 -0.290141 0.468021 0.00975754 0.00971405 -4.41123e-06 0.00973561 1.71428e-07 272.717 
-0.35 -0.81 0.0168473 0.162679 0.00975102 0.00971478 8.05432e-06 0.00973764 1.71415e-07 272.794 
-0.39 -0.79 -0.234873 0.12238 0.0097654 0.0097125 9.61711e-06 0.00974017 1.71566e-07 272.625 
-0.43 -0.77 -0.202359 0.446743 0.00975532 0.0097111 1.70947e-06 0.00973414 1.71426e-07 272.678 
-0.37 -0.79 -0.236396 0.0793667 0.00977394 0.00971787 1.15883e-05 0.00974409 1.71564e-07 272.738 
-0.41 -0.77 -0.212012 0.150313 0.0097542 0.00971035 9.17336e-06 0.00973364 1.7137e-07 272.754 
-0.35 -0.79 -0.230816 0.120203 0.00977509 0.00971842 1.52166e-05 0.00974879 1.71615e-07 272.789 
-0.39 -0.77 -0.0991331 0.135536 0.00975698 0.00972195 1.14859e-05 0.00974503 1.71593e-07 272.719 
-0.43 -0.75 0.0223273 0.196476 0.00976458 0.00970822 -6.59001e-07 0.00974077 1.71448e-07 272.829 
-0.33 -0.79 -0.262374 0.263286 0.0097622 0.00971644 8.03632e-06 0.00973939 1.71452e-07 272.785 
-0.37 -0.77 -0.151153 0.173426 0.00975809 0.00971505 3.41412e-06 0.00973843 1.71453e-07 272.757 
-0.41 -0.75 -0.0162913 0.351346 0.00976698 0.00970352 6.4275e-06 0.00974196 1.71565e-07 272.677 
-0.35 -0.77 -0.352755 0.256465 0.00976613 0.00971426 9.43774e-06 0.00973997 1.71416e-07 272.858 
-0.39 -0.75 -0.242106 0.177519 0.00977271 0.00972422 6.81673e-06 0.00975203 1.71703e-07 272.739 
-0.49 -0.75 -0.0348276 0.320423 0.00976725 0.00972813 5.23304e-06 0.0097516 1.71509e-07 273.036 
-0.47 -0.75 -0.111027 0.488438 0.00976487 0.00973173 6.08371e-06 0.00974475 1.71402e-07 273.014 
-0.45 -0.75 -0.129243 0.539825 0.0097622 0.00971197 9.32601e-07 0.00973446 1.71482e-07 272.599 
-0.49 -0.73 -0.0932688 0.515386 0.00976982 0.00972024 7.35849e-06 0.0097455 1.71423e-07 273.001 
-0.47 -0.73 -0.18815 0.454554 0.0097733 0.00974026 3.99369e-06 0.00975333 1.71471e-07 273.145 
-0.45 -0.73 -0.0899318 0.289508 0.00977471 0.00971661 -3.54973e-06 0.00974238 1.71453e-07 272.866 
-0.49 -0.71 0.00258848 0.617377 0.00977304 0.00971982 1.25997e-07 0.00974506 1.71518e-07 272.838 
-0.43 -0.73 -0.0459859 0.358275 0.00976495 0.00970257 5.97318e-06 0.0097365 1.7139e-07 272.801 
-0.47 -0.71 -0.0114067 0.476352 0.00977442 0.00973824 1.68357e-06 0.00975533 1.71506e-07 273.144 
-0.37 -0.75 -0.219532 0.121277 0.00976613 0.00971569 1.21271e-05 0.00973931 1.71494e-07 272.716 
-0.41 -0.73 -0.149229 0.356676 0.00976462 0.00970212 2.95451e-07 0.00973711 1.71546e-07 272.571 
-0.45 -0.71 0.0696886 0.219678 0.00976387 0.00971531 9.64145e-06 0.00973912 1.71327e-07 272.977 
-0.49 -0.69 0.0560849 0.550231 0.00976426 0.00971499 -6.7149e-06 0.00974191 1.71429e-07 272.891 
-0.35 -0.75 -0.0407355 0.260739 0.00975866 0.00971014 9.95139e-06 0.00973472 1.71376e-07 272.775 
-0.39 -0.73 -0.150578 0.211994 0.00976747 0.00971247 9.91187e-06 0.00974113 1.7145e-07 272.837 
-0.43 -0.71 -0.141223 0.375712 0.00976395 0.00970562 4.9968e-06 0.00973747 1.71529e-07 272.608 
-0.47 -0.69 0.149406 0.431057 0.00976882 0.00972763 5.58043e-06 0.00974889 1.71438e-07 273.073 
-0.37 -0.73 -0.315207 0.160952 0.0097716 0.00971994 1.17613e-05 0.00974447 1.71535e-07 272.794 
-0.41 -0.71 -0.0926073 0.481173 0.00976918 0.00969812 1.91322e-06 0.00973788 1.7167e-07 272.395 
-0.45 -0.69 -0.0616416 0.415516 0.00977867 0.00971452 9.91999e-06 0.00974915 1.71546e-07 272.909 
-0.35 -0.73 -0.556843 0.348267 0.00977157 0.00971335 9.62265e-06 0.00974521 1.71568e-07 272.764 
-0.39 -0.71 -0.188969 0.223232 0.00976895 0.00971483 1.29654e-06 0.00973956 1.71508e-07 272.7 
-0.43 -0.69 -0.145508 0.462808 0.00977907 0.00971579 8.02425e-06 0.00975279 1.71784e-07 272.631 
-0.33 -0.73 -0.349918 0.162988 0.0097717 0.00970907 1.4108e-05 0.00974174 1.71602e-07 272.611 
-0.37 -0.71 -0.156574 0.245679 0.0097702 0.00971344 1.23136e-05 0.00974486 1.71554e-07 272.775 
-0.41 -0.69 -0.118187 0.367273 0.00977081 0.00970385 2.19984e-06 0.00973938 1.71629e-07 272.502 
-0.35 -0.71 -0.263246 0.441484 0.0097694 0.00970883 9.02623e-06 0.00974565 1.71562e-07 272.785 
-0.39 -0.69 -0.116907 0.394354 0.0097631 0.00970381 6.48749e-06 0.00973625 1.71425e-07 272.739 
-0.37 -0.69 -0.33096 0.335538 0.00976155 0.00971179 1.07668e-05 0.00974045 1.71512e-07 272.719 
-0.35 -0.69 -0.313742 0.491459 0.0097632 0.00970542 1.23115e-05 0.00973395 1.71367e-07 272.766 
-0.35 -0.67 -0.261917 0.472728 0.00977313 0.00971468 1.05328e-05 0.00974488 1.71491e-07 272.875 
-0.33 -0.67 -0.3751 0.52324 0.00975909 0.00970469 8.33765e-06 0.00974095 1.71517e-07 272.725 
-0.33 -0.75 -0.0824969 0.241895 0.00975987 0.00971729 1.03617e-05 0.0097385 1.71399e-07 272.843 
-0.31 -0.73 -0.40812 0.464373 0.0097686 0.00972458 1.35575e-05 0.00975132 1.71619e-07 272.852 
-0.29 -0.73 -0.314832 0.484714 0.00977243 0.00971199 1.43496e-05 0.00975116 1.71549e-07 272.96 
-0.33 -0.71 -0.527061 0.123405 0.00976571 0.00971238 1.42147e-05 0.0097414 1.71489e-07 272.781 
-0.27 -0.73 -0.424654 0.555186 0.00976749 0.0097177 2.13987e-05 0.00974822 1.71487e-07 272.977 
-0.31 -0.71 -0.404112 0.445526 0.00976558 0.00972333 1.61042e-05 0.0097481 1.7157e-07 272.84 
-0.29 -0.71 -0.485314 0.45367 0.0097597 0.00970672 1.84598e-05 0.00974111 1.71341e-07 273.01 
-0.33 -0.69 -0.343871 0.27483 0.00977438 0.00971228 7.13622e-06 0.0097459 1.71657e-07 272.641 
-0.27 -0.71 -0.396149 0.482449 0.00976546 0.00971217 1.4903e-05 0.00974162 1.71321e-07 273.056 
-0.31 -0.69 -0.565179 0.429056 0.00977809 0.00971733 1.56038e-05 0.0097515 1.71606e-07 272.878 
-0.29 -0.69 -0.513385 0.519647 0.00977729 0.00971205 1.98916e-05 0.00975024 1.71521e-07 272.978 
-0.27 -0.69 -0.538726 0.393739 0.00977527 0.0097165 1.45831e-05 0.00974617 1.71344e-07 273.146 
-0.31 -0.67 -0.423305 0.500773 0.00975755 0.00971258 1.36483e-05 0.0097401 1.71467e-07 272.781 
-0.29 -0.67 -0.45677 0.417656 0.00976243 0.00971065 1.70304e-05 0.00974 1.71304e-07 273.037 
-0.41 -0.83 -0.188939 0.122165 0.00975643 0.00972603 8.4527e-06 0.00974203 1.7155e-07 272.702 
-0.39 -0.83 -0.164001 0.314205 0.00975512 0.00971813 6.83251e-06 0.00973404 1.71433e-07 272.665 
-0.37 -0.83 -0.196744 0.237778 0.00975037 0.00971829 7.19306e-06 0.00973457 1.7128e-07 272.924 
-0.35 -0.83 -0.301564 0.0528875 0.00975682 0.00971626 1.6119e-05 0.0097357 1.71378e-07 272.799 
-0.33 -0.83 -0.218689 0.304414 0.00975688 0.00972466 1.48431e-05 0.00973952 1.71294e-07 273.04 
-0.31 -0.83 -0.15695 -0.143786 0.00975021 0.00971352 2.00037e-05 0.00973909 1.71455e-07 272.77 
-0.29 -0.83 -0.241645 0.179557 0.00975807 0.00972111 1.69859e-05 0.00974693 1.71356e-07 273.148 
-0.27 -0.83 -0.314956 0.294191 0.00975837 0.00971667 7.85276e-06 0.00974489 1.71388e-07 273.04 
-0.27 -0.67 -0.480981 0.470493 0.00975984 0.00971839 1.89499e-05 0.00974181 1.7138e-07 272.966 
-0.25 -0.67 -0.523189 0.447046 0.00976942 0.00972016 1.31551e-05 0.00975264 1.71422e-07 273.203 
-0.25 -0.81 -0.285266 0.358422 0.00976351 0.00971478 7.70134e-06 0.00974349 1.71398e-07 272.986 
-0.25 -0.79 -0.310093 0.212721 0.00976729 0.00972234 1.97266e-05 0.00974354 1.71392e-07 272.996 
-0.35 -0.55 -0.201183 0.733215 0.00978209 0.00971142 6.84028e-06 0.00974521 1.71442e-07 272.964 
-0.39 -0.53 -0.269732 0.876568 0.0097726 0.00969055 4.59044e-06 0.00973528 1.71389e-07 272.769 
-0.37 -0.57 -0.254636 0.792972 0.00976762 0.00970421 1.2451e-05 0.00974225 1.71327e-07 273.064 
-0.41 -0.55 -0.213162 0.897279 0.00975937 0.00969744 6.82277e-06 0.00973519 1.71395e-07 272.758 
-0.45 -0.53 -0.0864179 0.616529 0.00976063 0.00969628 -2.09923e-06 0.00972719 1.71276e-07 272.723 
-0.35 -0.57 -0.232745 0.74337 0.00977437 0.00970215 1.88235e-05 0.00974154 1.71446e-07 272.855 
-0.39 -0.55 -0.335951 0.738542 0.00976265 0.00968771 4.40159e-06 0.00973493 1.7131e-07 272.886 
-0.43 -0.53 -0.203859 0.862748 0.00976511 0.0096919 4.06356e-06 0.00973086 1.71403e-07 272.623 
-0.47 -0.51 -0.0590562 0.769328 0.00977107 0.00970072 -1.28153e-07 0.00973876 1.71518e-07 272.662 
-0.37 -0.55 -0.265436 0.762993 0.0097663 0.00969424 9.80407e-06 0.00973719 1.71244e-07 273.055 
-0.41 -0.53 -0.263229 0.775189 0.00976975 0.00969885 4.70242e-06 0.00973567 1.71446e-07 272.69 
-0.45 -0.51 -0.281633 0.73253 0.00976826 0.00969335 4.3639e-06 0.00973546 1.71441e-07 272.692 
-0.37 -0.53 -0.289518 0.703038 0.00977651 0.00969509 -1.35775e-06 0.00973898 1.71439e-07 272.794 
-0.41 -0.51 -0.288962 0.811192 0.0097637 0.00969931 -8.35102e-07 0.00973419 1.7139e-07 272.738 
-0.35 -0.53 -0.361978 0.744677 0.00977353 0.00970553 8.13489e-06 0.00974113 1.71488e-07 272.776 
-0.39 -0.51 -0.369913 0.874759 0.00976977 0.00969098 -3.2455e-07 0.00973208 1.71398e-07 272.666 
-0.37 -0.51 -0.382296 0.741938 0.00976767 0.00969013 3.56111e-06 0.00972997 1.7128e-07 272.794 
-0.35 -0.51 -0.418982 0.796536 0.00976558 0.00969888 9.70803e-06 0.00972719 1.7133e-07 272.637 
-0.49 -0.65 -0.0696377 0.477127 0.00977463 0.00972269 8.10938e-06 0.0097504 1.71521e-07 272.983 
-0.47 -0.65 -0.0961499 0.418082 0.00976913 0.00971405 9.80636e-07 0.00974569 1.71465e-07 272.94 
-0.45 -0.65 -0.0668284 0.647091 0.00976302 0.00971669 6.20708e-06 0.00974438 1.71614e-07 272.667 
-0.49 -0.63 0.0306643 0.480216 0.00976952 0.00972649 4.4044e-06 0.00975548 1.7181e-07 272.665 
-0.43 -0.65 0.00819123 0.56489 0.00975633 0.00969854 4.40429e-06 0.00973425 1.71447e-07 272.648 
-0.47 -0.63 0.00270739 0.506583 0.00976526 0.00970723 3.31441e-06 0.00974331 1.71602e-07 272.655 
-0.41 -0.65 0.018595 0.551692 0.00976214 0.00970499 9.87107e-06 0.00973828 1.71448e-07 272.76 
-0.45 -0.63 -0.063998 0.583615 0.00977244 0.00971819 7.44066e-06 0.00974987 1.71658e-07 272.751 
-0.49 -0.61 -0.0372195 0.551307 0.00975822 0.00971222 -4.30906e-06 0.00974068 1.71421e-07 272.87 
-0.39 -0.65 -0.0972609 0.476775 0.0097602 0.00971406 8.04409e-06 0.00973961 1.71313e-07 273.011 
-0.43 -0.63 -0.116193 0.605049 0.00977561 0.00970461 8.5479e-06 0.00974168 1.71344e-07 273.021 
-0.47 -0.61 -0.125549 0.525469 0.00976647 0.0097137 7.31859e-06 0.00974446 1.71487e-07 272.871 
-0.37 -0.65 -0.213606 0.490852 0.00975856 0.00969925 3.18665e-06 0.00972701 1.71125e-07 272.959 
-0.41 -0.63 -0.165195 0.606294 0.00976863 0.00969396 2.577e-06 0.00973476 1.71363e-07 272.797 
-0.45 -0.61 -0.0896986 0.630492 0.00976519 0.0097087 -2.63333e-06 0.00973948 1.71379e-07 272.904 
-0.49 -0.59 0.00921065 0.518392 0.00977225 0.00970595 -6.25105e-06 0.00974715 1.71632e-07 272.716 
-0.35 -0.65 -0.289083 0.482402 0.00976635 0.0097133 1.22943e-05 0.00973864 1.71418e-07 272.818 
-0.39 -0.63 -0.111735 0.518621 0.00977669 0.0097184 1.25109e-05 0.00974783 1.71515e-07 272.92 
-0.43 -0.61 -0.018027 0.63262 0.00977364 0.00970669 4.60553e-06 0.00974163 1.71367e-07 272.983 
-0.47 -0.59 0.109486 0.55501 0.00977904 0.00971369 -6.08564e-06 0.00974917 1.7152e-07 272.95 
-0.37 -0.63 -0.195195 0.501087 0.00976351 0.00969876 1.12469e-05 0.00972992 1.71192e-07 272.933 
-0.41 -0.61 -0.112284 0.58462 0.00977451 0.00969941 9.97743e-06 0.00973734 1.71316e-07 272.944 
-0.45 -0.59 0.100321 0.50647 0.00977923 0.00971035 3.02682e-06 0.00975064 1.71506e-07 273.013 
-0.49 -0.57 -0.0637584 0.500767 0.00978034 0.00971059 -4.99503e-06 0.00974884 1.71569e-07 272.862 
-0.35 -0.63 -0.324399 0.60594 0.00975883 0.00970142 1.1299e-05 0.00973021 1.71259e-07 272.834 
-0.39 -0.61 -0.0895282 0.470352 0.00977279 0.00970618 8.50763e-06 0.00973921 1.71344e-07 272.951 
-0.43 -0.59 -0.0421666 0.790057 0.00977113 0.00969744 4.92052e-06 0.00974391 1.71514e-07 272.812 
-0.47 -0.57 -0.109315 0.486235 0.00976909 0.00970628 -4.91076e-06 0.00973562 1.71353e-07 272.836 
-0.37 -0.61 -0.164829 0.726503 0.00977471 0.00970616 1.33821e-05 0.00974024 1.71504e-07 272.726 
-0.41 -0.59 -0.0563811 0.560469 0.00977809 0.00970163 4.08428e-06 0.00974009 1.71388e-07 272.906 
-0.45 -0.57 -0.109906 0.671641 0.00976785 0.00970101 2.53099e-06 0.0097364 1.71345e-07 272.871 
-0.49 -0.55 -0.0376194 0.641674 0.0097515 0.00970543 -5.61523e-06 0.00973078 1.713e-07 272.785 
-0.35 -0.61 -0.186607 0.609505 0.00976973 0.00969813 1.07472e-05 0.00973127 1.71296e-07 272.806 
-0.39 -0.59 -0.081736 0.587124 0.00977391 0.00969172 9.58925e-06 0.00973672 1.71337e-07 272.892 
-0.43 -0.57 0.0234193 0.734774 0.00977162 0.00969846 4.881e-06 0.00973979 1.71372e-07 272.923 
-0.47 -0.55 -0.157457 0.647089 0.00976308 0.00969702 1.05976e-06 0.00973613 1.71445e-07 272.705 
-0.33 -0.61 -0.373813 0.622042 0.00976519 0.00969886 1.81453e-05 0.00973521 1.71255e-07 272.98 
-0.37 -0.59 -0.159386 0.704073 0.00977841 0.00971544 1.92403e-05 0.00974912 1.71567e-07 272.873 
-0.41 -0.57 -0.0705147 0.629828 0.00976388 0.00969838 1.10424e-05 0.0097354 1.71218e-07 273.045 
-0.45 -0.55 -0.189486 0.523663 0.00976119 0.00970061 3.37257e-06 0.00972981 1.71244e-07 272.847 
-0.49 -0.53 0.0327454 0.68038 0.00976501 0.00969788 -3.4209e-06 0.00973686 1.71357e-07 272.865 
-0.35 -0.59 -0.3035 0.742102 0.00976978 0.00969318 1.69099e-05 0.00972869 1.71336e-07 272.669 
-0.39 -0.57 -0.248317 0.762594 0.00976539 0.00968489 8.94909e-06 0.00972991 1.71151e-07 272.998 
-0.43 -0.55 -0.184695 0.631545 0.00975853 0.00969329 9.22772e-06 0.00972937 1.71315e-07 272.722 
-0.47 -0.53 0.00100335 0.610377 0.00975647 0.00969767 1.34287e-06 0.00972629 1.7121e-07 272.802 
-0.29 -0.57 -0.599116 0.679093 0.0097731 0.00971443 1.90045e-05 0.00974618 1.71448e-07 272.982 
-0.33 -0.55 -0.378372 0.889992 0.009783 0.00970868 9.33376e-06 0.00974785 1.71472e-07 272.99 
-0.29 -0.61 -0.355597 0.567935 0.0097699 0.00971919 1.10813e-05 0.00974566 1.7162e-07 272.693 
-0.33 -0.59 -0.291865 0.808665 0.00976756 0.00970207 1.33672e-05 0.00973702 1.71273e-07 273.003 
-0.27 -0.61 -0.427603 0.492952 0.00977938 0.00971203 1.52806e-05 0.00974827 1.71611e-07 272.781 
-0.31 -0.59 -0.394784 0.632907 0.0097705 0.00971194 1.10562e-05 0.00974032 1.71445e-07 272.822 
-0.29 -0.59 -0.346896 0.464111 0.00977562 0.00972049 1.08444e-05 0.00974656 1.71593e-07 272.761 
-0.33 -0.57 -0.319715 0.754144 0.00977779 0.00971137 9.00622e-06 0.00974561 1.71382e-07 273.071 
-0.27 -0.59 -0.467786 0.67625 0.00976892 0.00970539 1.30743e-05 0.00974003 1.71492e-07 272.74 
-0.31 -0.57 -0.375846 0.697015 0.00977847 0.00970766 5.95806e-06 0.00974405 1.71513e-07 272.818 
-0.27 -0.57 -0.65526 0.684203 0.00976456 0.00970511 2.4913e-05 0.00974665 1.71571e-07 272.798 
-0.31 -0.55 -0.397595 0.935295 0.00977337 0.00970823 1.83936e-05 0.00974294 1.71453e-07 272.882 
-0.29 -0.55 -0.510932 0.664341 0.00976156 0.00969497 2.28043e-05 0.00973117 1.71245e-07 272.884 
-0.33 -0.53 -0.315607 1.05659 0.00977181 0.00969673 1.39566e-05 0.00973626 1.71294e-07 272.948 
-0.27 -0.55 -0.404187 0.578139 0.00976653 0.00971215 2.03232e-05 0.00974088 1.71388e-07 272.927 
-0.31 -0.53 -0.362393 0.808988 0.00977149 0.00970335 2.33945e-05 0.00974093 1.71492e-07 272.763 
-0.29 -0.53 -0.255846 0.66217 0.009782 0.0097008 1.88771e-05 0.00974748 1.71495e-07 272.943 
-0.33 -0.51 -0.267412 0.899071 0.00976238 0.00969095 1.5914e-05 0.00972909 1.71106e-07 273.047 
-0.27 -0.53 -0.425448 0.767871 0.00977863 0.00971177 2.24638e-05 0.00974412 1.71485e-07 272.864 
-0.31 -0.51 -0.275184 0.86897 0.00976481 0.00970075 1.63371e-05 0.0097292 1.71289e-07 272.759 
-0.29 -0.51 -0.474877 0.812277 0.00975982 0.00970047 2.33291e-05 0.00973777 1.71452e-07 272.738 
-0.27 -0.51 -0.574941 0.95909 0.0097581 0.00970469 2.66051e-05 0.00973737 1.71348e-07 272.893 
-0.33 -0.65 -0.327284 0.470363 0.0097664 0.00970598 1.82918e-05 0.00973756 1.71282e-07 273.004 
-0.31 -0.65 -0.262846 0.549001 0.00976326 0.00971196 1.47926e-05 0.00973953 1.71301e-07 273.03 
-0.29 -0.65 -0.43076 0.538569 0.00975699 0.00970263 1.52394e-05 0.00973001 1.71145e-07 273.01 
-0.33 -0.63 -0.291664 0.530411 0.00976259 0.00970964 1.03863e-05 0.00974071 1.71377e-07 272.94 
-0.27 -0.65 -0.477676 0.455557 0.00976848 0.00972469 1.17556e-05 0.00974727 1.71495e-07 272.936 
-0.31 -0.63 -0.484984 0.649992 0.00976189 0.00970403 1.93208e-05 0.00973639 1.71273e-07 272.985 
-0.25 -0.65 -0.56729 0.428877 0.00976355 0.00971693 1.31902e-05 0.0097424 1.71474e-07 272.834 
-0.29 -0.63 -0.510034 0.452484 0.00977096 0.00971813 1.21949e-05 0.00974463 1.71512e-07 272.836 
-0.27 -0.63 -0.445859 0.519645 0.0097587 0.00971525 1.40746e-05 0.009738 1.71475e-07 272.709 
-0.31 -0.61 -0.437233 0.618407 0.00977114 0.00971089 1.40931e-05 0.00974478 1.7157e-07 272.748 
-0.49 -0.67 0.0618332 0.474142 0.00976677 0.00971687 -6.26224e-06 0.00974152 1.71482e-07 272.797 
-0.47 -0.67 0.040286 0.414533 0.00976533 0.00972056 -8.26464e-07 0.00974323 1.71496e-07 272.822 
-0.45 -0.67 0.101218 0.570431 0.00976422 0.00971435 3.19891e-06 0.00974593 1.71507e-07 272.88 
-0.43 -0.67 -0.0826098 0.594789 0.00977069 0.00970909 4.77555e-06 0.00974447 1.71566e-07 272.746 