ITEM: TIMESTEP
960500
ITEM: NUMBER OF CELLS
5000
ITEM: BOX BOUNDS ss ss pp
-0.5 0.5
-1 1
-0.5 0.5
ITEM: CELLS xc yc f_U[*] f_V[*] f_Tau[1] f_Tau[2] f_Tau[3] f_Press[*] f_Mrho[*] f_Ttra[*] 
-0.49 -0.99 -0.0587231 0.121183 0.00975893 0.00972578 1.40846e-05 0.00974522 1.71637e-07 272.654 
-0.47 -0.99 -0.12728 -0.0987018 0.00974251 0.00971101 1.07802e-05 0.00973278 1.71414e-07 272.659 
-0.45 -0.99 -0.134232 0.0198815 0.00974208 0.00972639 4.81638e-06 0.00974006 1.71403e-07 272.88 
-0.49 -0.97 -0.0261616 0.110658 0.00973958 0.00971605 1.3294e-05 0.0097305 1.71319e-07 272.747 
-0.43 -0.99 -0.186029 -0.0391484 0.00973457 0.00972641 6.23645e-06 0.00973876 1.71315e-07 272.985 
-0.47 -0.97 -0.0882643 0.083066 0.00974512 0.00971599 1.39231e-05 0.00973386 1.71348e-07 272.796 
-0.41 -0.99 -0.0239942 -0.0411524 0.00973027 0.00972131 4.64748e-06 0.00972984 1.71263e-07 272.818 
-0.45 -0.97 -0.106953 -0.0279917 0.00974564 0.00972941 7.50678e-06 0.00974322 1.71409e-07 272.96 
-0.49 -0.95 0.0570617 0.0814612 0.00973226 0.00970241 2.99812e-06 0.00972474 1.7111e-07 272.918 
-0.39 -0.99 -0.0795207 0.0664758 0.00973526 0.00972362 -3.16772e-06 0.00972694 1.70965e-07 273.211 
-0.43 -0.97 0.0884674 0.00685526 0.00974715 0.00972782 5.31933e-06 0.00974191 1.71367e-07 272.99 
-0.47 -0.95 0.10804 0.170478 0.0097482 0.00972161 2.28573e-06 0.00973259 1.71253e-07 272.91 
-0.37 -0.99 -0.145468 -0.00109369 0.00973631 0.00972977 9.82221e-06 0.00973516 1.71292e-07 272.921 
-0.41 -0.97 -0.117243 -0.102447 0.00974195 0.00972233 7.93142e-06 0.00973325 1.71233e-07 272.961 
-0.45 -0.95 0.167862 -0.217082 0.00975286 0.00973488 7.87581e-06 0.00974845 1.71496e-07 272.969 
-0.49 -0.93 -0.000359568 0.0097831 0.00976331 0.00971458 7.92009e-07 0.00974253 1.71406e-07 272.946 
-0.35 -0.99 0.0100247 -0.121319 0.00972527 0.00970482 1.13725e-05 0.00971387 1.70853e-07 273.023 
-0.39 -0.97 0.0161098 0.0569648 0.00973299 0.00972183 8.92132e-06 0.00973436 1.71289e-07 272.904 
-0.43 -0.95 0.102895 0.0200614 0.00975446 0.00972106 1.23092e-05 0.00974214 1.71446e-07 272.871 
-0.47 -0.93 0.0862723 0.00555086 0.00975552 0.00971658 1.16009e-06 0.00973655 1.71339e-07 272.885 
-0.33 -0.99 0.0587602 0.0219249 0.00973583 0.00972886 4.98559e-06 0.00973065 1.71201e-07 272.94 
-0.37 -0.97 0.0582244 -0.0702069 0.00973314 0.00972682 3.37047e-06 0.00973539 1.71337e-07 272.855 
-0.41 -0.95 -0.0597962 0.0895255 0.00975214 0.00972684 6.26253e-06 0.00974157 1.71453e-07 272.843 
-0.45 -0.93 0.0355943 0.108529 0.00975266 0.00972733 6.45353e-06 0.00974058 1.71454e-07 272.814 
-0.49 -0.91 0.039597 0.102831 0.00975805 0.00972063 1.11318e-05 0.00973931 1.71194e-07 273.193 
-0.35 -0.97 -0.0235554 -0.0661464 0.00973608 0.00971284 6.50507e-06 0.00972506 1.71102e-07 272.94 
-0.39 -0.95 -0.191508 -0.0341278 0.00975104 0.00972586 6.74893e-06 0.00974029 1.71522e-07 272.698 
-0.43 -0.93 -0.0802844 0.0368637 0.00975288 0.00972079 6.24596e-06 0.00973146 1.71198e-07 272.967 
-0.47 -0.91 -0.267212 -0.0311167 0.00975469 0.00971591 4.27534e-06 0.00973583 1.71395e-07 272.775 
-0.33 -0.97 -0.11979 -0.0477841 0.00973796 0.00972421 3.79969e-06 0.00973684 1.7137e-07 272.844 
-0.37 -0.95 -0.147498 -0.0635115 0.00975227 0.00972027 1.1304e-05 0.00973967 1.71332e-07 272.983 
-0.41 -0.93 -0.046344 0.0928461 0.00975558 0.00972875 1.49327e-05 0.00973263 1.71251e-07 272.915 
-0.45 -0.91 -0.09672 0.0531328 0.00976021 0.00972168 5.59675e-06 0.009744 1.71466e-07 272.891 
-0.49 -0.89 -0.0617862 0.109765 0.0097618 0.00972386 6.2757e-06 0.00974502 1.71412e-07 273.005 
-0.35 -0.95 -0.147957 -0.0804352 0.00975401 0.00972366 3.87099e-06 0.00973956 1.71419e-07 272.842 
-0.39 -0.93 -0.0273573 -0.100476 0.00975308 0.00972758 6.52287e-06 0.00973965 1.71543e-07 272.648 
-0.43 -0.91 -0.188999 0.0437695 0.00975479 0.00972665 9.69732e-06 0.00973768 1.71186e-07 273.16 
-0.47 -0.89 0.0719409 0.135667 0.00975524 0.00972057 8.6083e-06 0.00973922 1.71433e-07 272.81 
-0.37 -0.93 -0.0302122 0.0225842 0.00975449 0.00972151 1.35934e-06 0.00974285 1.71342e-07 273.056 
-0.41 -0.91 -0.0852883 0.071856 0.00976353 0.00972236 3.97257e-06 0.00974085 1.71368e-07 272.959 
-0.45 -0.89 -0.249919 0.168332 0.00975016 0.00971578 -1.8797e-06 0.00973849 1.71313e-07 272.98 
-0.49 -0.87 -0.0624206 0.160259 0.00974122 0.00971494 -9.01869e-07 0.00972593 1.71244e-07 272.737 
-0.35 -0.93 -0.333527 0.0294652 0.00975743 0.009724 4.77828e-06 0.00973582 1.71416e-07 272.742 
-0.39 -0.91 -0.140617 -0.0245378 0.00976886 0.00973399 1.34169e-05 0.00975421 1.71686e-07 272.827 
-0.43 -0.89 -0.231188 -0.0391702 0.00976444 0.00973206 9.97242e-07 0.00975004 1.71438e-07 273.105 
-0.47 -0.87 0.0620324 0.162136 0.00975327 0.00972247 2.28642e-06 0.00973433 1.71345e-07 272.813 
-0.37 -0.91 -0.24973 0.170093 0.00975403 0.00972673 6.05772e-06 0.00974094 1.71641e-07 272.527 
-0.41 -0.89 -0.110931 0.0587729 0.00975879 0.00971521 2.36722e-06 0.00974054 1.71477e-07 272.777 
-0.45 -0.87 -0.0812539 0.207737 0.00975926 0.00971841 4.36647e-06 0.00974644 1.7143e-07 273.017 
-0.49 -0.85 -0.00645253 0.157432 0.00975484 0.00971785 -1.24432e-06 0.00973426 1.71296e-07 272.888 
-0.35 -0.91 -0.148992 0.138786 0.009749 0.00971933 3.34532e-06 0.00973472 1.71356e-07 272.806 
-0.39 -0.89 -0.143366 0.149332 0.00975601 0.0097224 1.26296e-05 0.00974472 1.71516e-07 272.832 
-0.43 -0.87 -0.0551597 -0.0310054 0.00974093 0.00972943 5.21493e-06 0.0097416 1.71413e-07 272.909 
-0.47 -0.85 -0.165789 0.257602 0.0097519 0.0097187 1.27174e-06 0.00973906 1.71366e-07 272.912 
-0.33 -0.91 -0.186121 -0.137055 0.00974938 0.009714 1.2608e-05 0.00973378 1.71389e-07 272.728 
-0.37 -0.89 -0.239625 0.0809528 0.00976587 0.00974187 1.68974e-05 0.00975859 1.71641e-07 273.021 
-0.41 -0.87 -0.213635 0.129845 0.00974583 0.00972009 6.19849e-06 0.00973581 1.71425e-07 272.727 
-0.45 -0.85 -0.0863255 0.158856 0.00975036 0.00971402 5.9316e-06 0.00973807 1.71351e-07 272.909 
-0.35 -0.89 -0.281696 0.183361 0.00976223 0.00971417 1.21255e-05 0.00973029 1.71266e-07 272.826 
-0.39 -0.87 -0.220497 0.0780081 0.00975442 0.00971739 2.39956e-06 0.00973842 1.71508e-07 272.668 
-0.43 -0.85 -0.146536 0.0883923 0.00976463 0.00973323 2.0213e-06 0.0097464 1.71586e-07 272.768 
-0.37 -0.87 -0.240241 0.212809 0.00976549 0.00973411 9.13627e-06 0.00974953 1.7155e-07 272.912 
-0.41 -0.85 -0.156282 0.116682 0.00976009 0.00971743 5.06094e-06 0.00974332 1.71579e-07 272.693 
-0.35 -0.87 -0.170618 0.102365 0.00976797 0.00971825 1.17643e-05 0.00974043 1.71345e-07 272.984 
-0.39 -0.85 -0.288452 0.327316 0.00976123 0.00972347 -2.38509e-06 0.00974701 1.7153e-07 272.874 
-0.33 -0.87 -0.37613 0.0522969 0.00976963 0.00972401 1.1691e-05 0.00974548 1.71394e-07 273.048 
-0.37 -0.85 -0.370553 0.012441 0.00975947 0.00971987 4.73489e-06 0.00974153 1.71399e-07 272.928 
-0.35 -0.85 -0.281843 0.118474 0.00976118 0.00972031 1.27519e-05 0.00973955 1.7119e-07 273.207 
-0.33 -0.85 -0.403715 0.400568 0.00975986 0.00972518 1.01331e-05 0.00973797 1.71323e-07 272.951 
-0.31 -0.99 0.120954 -0.0522735 0.00972858 0.00970923 1.4124e-05 0.00972048 1.7117e-07 272.703 
-0.29 -0.99 0.0182012 0.215457 0.00972925 0.00971913 1.26393e-05 0.00972761 1.71222e-07 272.82 
-0.27 -0.99 -0.10153 -0.0901998 0.00974554 0.00973346 8.06761e-06 0.00973559 1.71123e-07 273.202 
-0.31 -0.97 -0.317213 -0.0730019 0.00974664 0.00971327 6.65077e-06 0.00973312 1.71323e-07 272.813 
-0.29 -0.97 -0.260094 0.24625 0.00975955 0.00972191 9.15484e-06 0.00974679 1.71595e-07 272.764 
-0.33 -0.95 -0.096212 0.096638 0.00975127 0.00971903 7.53101e-06 0.00973489 1.71274e-07 272.942 
-0.27 -0.97 -0.14556 -0.0192772 0.00975002 0.00972563 1.15191e-05 0.00973992 1.71452e-07 272.8 
-0.31 -0.95 -0.16582 0.130547 0.00975009 0.00971548 3.53155e-06 0.00973254 1.71321e-07 272.801 
-0.29 -0.95 -0.0931895 -0.000636839 0.00974364 0.00970861 8.87789e-06 0.00972327 1.7124e-07 272.67 
-0.33 -0.93 -0.333628 0.0745782 0.00976009 0.0097174 2.82038e-06 0.00973617 1.71319e-07 272.906 
-0.27 -0.95 -0.223725 0.0847327 0.00974747 0.00973251 8.50812e-06 0.00973929 1.71417e-07 272.837 
-0.31 -0.93 -0.113786 0.0451615 0.00975642 0.00971268 9.45718e-06 0.00973388 1.71498e-07 272.558 
-0.29 -0.93 -0.247804 0.112774 0.0097574 0.009709 8.45629e-06 0.00973333 1.71448e-07 272.621 
-0.27 -0.93 -0.119941 0.0892327 0.00976205 0.0097286 9.57713e-06 0.00974823 1.71641e-07 272.731 
-0.31 -0.91 -0.235406 0.207076 0.0097534 0.00971302 5.79939e-06 0.00973658 1.71412e-07 272.769 
-0.29 -0.91 -0.300215 0.0495338 0.00975294 0.00971006 2.68553e-07 0.00973068 1.71348e-07 272.705 
-0.33 -0.89 -0.281618 -0.121742 0.00975534 0.0097216 6.95618e-06 0.00973774 1.71299e-07 272.982 
-0.27 -0.91 -0.176199 0.0502486 0.00975611 0.00972377 6.32163e-06 0.00973279 1.71482e-07 272.552 
-0.31 -0.89 -0.283235 0.167092 0.00975888 0.00971385 2.86197e-06 0.00974501 1.71531e-07 272.817 
-0.29 -0.89 -0.164192 -0.0381197 0.00975631 0.00971026 4.65251e-06 0.00973851 1.71295e-07 273.01 
-0.27 -0.89 -0.288522 0.18869 0.0097505 0.0097185 1.09199e-05 0.00974213 1.71462e-07 272.845 
-0.31 -0.87 -0.461148 0.0923278 0.00975869 0.0097183 5.846e-06 0.00973601 1.71417e-07 272.746 
-0.29 -0.87 -0.374391 -0.0123057 0.00974987 0.00970592 8.95087e-06 0.00973333 1.71238e-07 272.955 
-0.27 -0.87 -0.420236 0.246752 0.00974899 0.00971799 1.09536e-05 0.00974003 1.7146e-07 272.79 
-0.31 -0.85 -0.431727 -0.124032 0.00975984 0.00971822 2.02804e-05 0.0097406 1.7146e-07 272.805 
-0.29 -0.85 -0.332189 0.0728281 0.00975363 0.00970611 1.19908e-05 0.00974261 1.71441e-07 272.892 
-0.27 -0.85 -0.414316 0.23522 0.00974981 0.0097123 8.5429e-06 0.00973676 1.7119e-07 273.128 
-0.25 -0.99 -0.2265 0.101572 0.00974519 0.00974009 1.44622e-05 0.00974292 1.71363e-07 273.025 
-0.25 -0.97 -0.0587833 0.206494 0.009751 0.00973629 7.13472e-06 0.00974418 1.71596e-07 272.69 
-0.25 -0.95 -0.34396 0.178025 0.009744 0.0097368 1.03875e-05 0.00974085 1.71477e-07 272.786 
-0.25 -0.93 -0.0409532 0.1579 0.00976066 0.0097371 1.60603e-05 0.00974568 1.71645e-07 272.653 
-0.25 -0.91 -0.276636 0.13734 0.00975858 0.00972662 1.33908e-05 0.00974386 1.71547e-07 272.759 
-0.25 -0.89 -0.385337 0.221733 0.00974888 0.00972057 1.15061e-05 0.00973629 1.71279e-07 272.973 
-0.25 -0.87 -0.44134 0.290854 0.00974484 0.00971249 1.74579e-05 0.0097361 1.71237e-07 273.034 
-0.25 -0.85 -0.368375 0.377575 0.00975934 0.00971726 9.4268e-06 0.00974612 1.71341e-07 273.149 
-0.25 -0.83 -0.455426 0.235246 0.00975309 0.00971033 3.35829e-06 0.00974403 1.71337e-07 273.098 
-0.33 -0.81 -0.0982231 0.139053 0.00975908 0.00970967 1.11827e-05 0.00973201 1.71325e-07 272.779 
-0.31 -0.81 -0.224177 0.235852 0.00977347 0.00971916 1.47627e-05 0.00974833 1.71352e-07 273.194 
-0.29 -0.81 -0.295624 0.151393 0.00977681 0.00972201 7.82806e-06 0.00975236 1.71371e-07 273.276 
-0.27 -0.81 -0.42433 0.346804 0.00977617 0.00972306 9.87411e-06 0.00975739 1.71536e-07 273.155 
-0.31 -0.79 -0.340554 0.204763 0.0097582 0.00971537 4.64314e-06 0.00973849 1.71427e-07 272.799 
-0.29 -0.79 -0.410724 0.489559 0.009763 0.00972143 5.61436e-06 0.00973928 1.7145e-07 272.785 
-0.33 -0.77 -0.390993 0.254953 0.00977169 0.00972106 1.30774e-05 0.00974835 1.71412e-07 273.1 
-0.27 -0.79 -0.535726 0.249093 0.00976448 0.00971239 1.46137e-05 0.00974088 1.71459e-07 272.815 
-0.31 -0.77 -0.313883 0.226191 0.00976122 0.00970699 1.01595e-05 0.0097358 1.71348e-07 272.849 
-0.29 -0.77 -0.341181 0.424851 0.00975576 0.00972144 9.32643e-06 0.00974102 1.71562e-07 272.655 
-0.27 -0.77 -0.333977 0.3483 0.00975309 0.00970659 8.20275e-06 0.00973386 1.71318e-07 272.842 
-0.31 -0.75 -0.217813 0.375095 0.00976053 0.00971684 9.22222e-06 0.0097477 1.71534e-07 272.886 
-0.29 -0.75 -0.50657 0.498516 0.00975979 0.00971783 1.48129e-05 0.00974494 1.715e-07 272.863 
-0.27 -0.75 -0.545701 0.575699 0.00975868 0.0097077 1.6102e-05 0.0097337 1.71254e-07 272.94 
-0.49 -0.83 -0.0740291 0.255912 0.00975566 0.00972036 3.6161e-06 0.00973716 1.71469e-07 272.694 
-0.47 -0.83 -0.0928698 0.218847 0.00975618 0.00971503 2.92093e-06 0.00973886 1.71675e-07 272.415 
-0.45 -0.83 -0.0968084 0.189439 0.00975376 0.00972391 -1.19673e-06 0.00974185 1.71518e-07 272.748 
-0.49 -0.81 0.0257596 0.282948 0.00975672 0.00972321 4.97719e-07 0.00974166 1.71431e-07 272.881 
-0.43 -0.83 -0.106768 0.116809 0.00974655 0.00971641 2.29684e-06 0.00973427 1.71462e-07 272.624 
-0.47 -0.81 -0.0489556 0.189243 0.00975717 0.0097166 1.29204e-06 0.00974388 1.71464e-07 272.891 
-0.45 -0.81 -0.0346244 0.219649 0.00976681 0.00972682 3.60216e-06 0.00974766 1.71665e-07 272.677 
-0.49 -0.79 -0.0242638 0.398896 0.0097588 0.00972224 2.08361e-06 0.00974048 1.71389e-07 272.915 
-0.43 -0.81 -0.108466 0.221186 0.00976962 0.0097141 -1.73521e-06 0.00974602 1.71745e-07 272.504 
-0.47 -0.79 -0.00419694 0.097966 0.0097581 0.00971724 -6.97217e-06 0.00974126 1.714e-07 272.92 
-0.41 -0.81 -0.298384 0.28133 0.00976354 0.00972318 7.92906e-06 0.00974914 1.71545e-07 272.909 
-0.45 -0.79 -0.0094899 0.301864 0.0097583 0.00972603 -2.42718e-06 0.00974174 1.71472e-07 272.819 
-0.49 -0.77 0.0675716 0.248505 0.00975615 0.00971986 4.42211e-06 0.00973885 1.71269e-07 273.06 
-0.39 -0.81 -0.30689 0.171787 0.00975425 0.00972004 1.46532e-05 0.00974404 1.71515e-07 272.814 
-0.43 -0.79 -0.284295 0.46353 0.00976177 0.00970888 4.00341e-06 0.00973788 1.71452e-07 272.742 
-0.47 -0.77 -0.013884 0.32708 0.00975402 0.00972348 -2.33662e-06 0.00973997 1.71331e-07 272.993 
-0.37 -0.81 -0.0938595 0.197182 0.00975508 0.00971561 7.62118e-06 0.00973575 1.71489e-07 272.624 
-0.41 -0.79 -0.405549 0.355554 0.00976432 0.00971894 8.43018e-06 0.00974721 1.71677e-07 272.646 
-0.45 -0.77 -0.325501 0.486585 0.00975527 0.00972235 -2.2039e-06 0.00974105 1.71471e-07 272.8 
-0.35 -0.81 -0.039573 0.250698 0.00974543 0.00971475 1.81989e-06 0.00973311 1.71337e-07 272.791 
-0.39 -0.79 -0.307802 0.066134 0.00976899 0.00972134 7.29745e-06 0.0097479 1.71726e-07 272.588 
-0.43 -0.77 -0.317454 0.523836 0.00974934 0.0097066 1.11051e-06 0.0097283 1.71385e-07 272.58 
-0.37 -0.79 -0.365003 0.191398 0.00977292 0.00971632 8.14005e-06 0.00974898 1.71566e-07 272.871 
-0.41 -0.77 -0.324996 0.203254 0.00975359 0.0097131 5.93073e-06 0.00973647 1.71456e-07 272.697 
-0.35 -0.79 -0.306583 0.152804 0.00977015 0.00971847 1.52368e-05 0.00974692 1.71595e-07 272.768 
-0.39 -0.77 -0.145952 0.125792 0.0097514 0.00972229 8.55898e-06 0.00974604 1.71585e-07 272.758 
-0.43 -0.75 0.0606503 0.294139 0.00976466 0.00971529 -4.0022e-06 0.00974294 1.71494e-07 272.817 
-0.33 -0.79 -0.237873 0.229953 0.0097559 0.00970961 1.92776e-06 0.00972967 1.71365e-07 272.651 
-0.37 -0.77 -0.133013 0.233056 0.00975755 0.00971236 4.58961e-06 0.00973969 1.71486e-07 272.739 
-0.41 -0.75 0.00396045 0.406863 0.00976609 0.00970315 3.8745e-06 0.00974309 1.71641e-07 272.588 
-0.35 -0.77 -0.37481 0.248988 0.00977008 0.0097208 6.01007e-06 0.00974715 1.71394e-07 273.095 
-0.39 -0.75 -0.284194 0.142571 0.00977222 0.00972442 5.90425e-06 0.00975098 1.71606e-07 272.864 
-0.49 -0.75 -0.0552507 0.255392 0.00975295 0.00972398 4.17537e-06 0.00974091 1.71275e-07 273.11 
-0.47 -0.75 -0.0904332 0.431371 0.00975498 0.00973341 1.92785e-06 0.00974002 1.71297e-07 273.049 
-0.45 -0.75 -0.0868449 0.636609 0.0097531 0.00970833 -4.60871e-06 0.00972908 1.7134e-07 272.673 
-0.49 -0.73 -0.0528476 0.440796 0.00977229 0.00972216 4.31942e-06 0.00974979 1.71442e-07 273.091 
-0.47 -0.73 -0.198741 0.416149 0.00977155 0.0097433 3.20754e-06 0.0097548 1.71462e-07 273.2 
-0.45 -0.73 -0.160593 0.396351 0.00976808 0.00971339 -8.97896e-06 0.00974086 1.715e-07 272.749 
-0.49 -0.71 -0.0540345 0.56341 0.00977756 0.00972125 2.06514e-07 0.00974539 1.71521e-07 272.842 
-0.43 -0.73 -0.0606395 0.364598 0.00975574 0.00970732 1.8829e-07 0.00973675 1.71429e-07 272.747 
-0.47 -0.71 -0.101062 0.526149 0.00977964 0.00973843 1.81167e-07 0.00975803 1.71669e-07 272.961 
-0.37 -0.75 -0.239059 0.186643 0.00976044 0.00971623 8.73379e-06 0.00974171 1.71541e-07 272.707 
-0.41 -0.73 -0.0399804 0.416728 0.00975776 0.00970023 -1.85934e-06 0.00973805 1.71604e-07 272.506 
-0.45 -0.71 0.106937 0.128577 0.00977216 0.00972081 7.23091e-06 0.0097479 1.71602e-07 272.783 
-0.49 -0.69 0.0282528 0.561452 0.00977703 0.00971602 -6.63283e-06 0.00974532 1.71539e-07 272.812 
-0.35 -0.75 -0.0898351 0.276488 0.00975221 0.00971304 7.94495e-06 0.0097373 1.71411e-07 272.792 
-0.39 -0.73 -0.0246821 0.218398 0.00976096 0.00971238 9.33416e-06 0.00974142 1.71396e-07 272.93 
-0.43 -0.71 -0.0369998 0.411567 0.00976906 0.00970887 1.95331e-06 0.00974358 1.71576e-07 272.704 
-0.47 -0.69 0.146677 0.375322 0.00977878 0.00972723 3.89285e-06 0.00975119 1.7152e-07 273.007 
-0.37 -0.73 -0.248289 0.226347 0.00977056 0.0097236 8.77631e-06 0.00975097 1.71599e-07 272.875 
-0.41 -0.71 -0.0120663 0.482583 0.00976935 0.00969253 -4.10574e-07 0.00973636 1.71637e-07 272.405 
-0.45 -0.69 -0.0697757 0.3067 0.00978866 0.00972356 9.74981e-06 0.00976003 1.71794e-07 272.818 
-0.35 -0.73 -0.475299 0.417973 0.00976755 0.00971169 9.44994e-06 0.00974608 1.71528e-07 272.85 
-0.39 -0.71 -0.162178 0.245653 0.00977236 0.00971547 -2.51044e-06 0.00974331 1.71584e-07 272.684 
-0.43 -0.69 -0.184795 0.530497 0.00978759 0.0097165 6.52371e-06 0.00976003 1.71915e-07 272.627 
-0.33 -0.73 -0.44728 0.140856 0.009768 0.00970684 1.27772e-05 0.00974017 1.71561e-07 272.633 
-0.37 -0.71 -0.0706799 0.366719 0.0097728 0.00971598 1.21421e-05 0.00974917 1.71616e-07 272.798 
-0.41 -0.69 -0.150911 0.303133 0.00977822 0.00970119 1.08639e-08 0.00974113 1.71675e-07 272.479 
-0.35 -0.71 -0.264416 0.564898 0.00976911 0.00970438 6.6811e-06 0.00974867 1.71595e-07 272.817 
-0.39 -0.69 -0.0839923 0.402536 0.00976557 0.00970438 7.11329e-06 0.00973546 1.71478e-07 272.633 
-0.37 -0.69 -0.315187 0.43307 0.00976386 0.00970931 8.21563e-06 0.00974156 1.71437e-07 272.869 
-0.35 -0.69 -0.299306 0.647717 0.00976778 0.00970506 1.23299e-05 0.00973986 1.71401e-07 272.879 
-0.35 -0.67 -0.208231 0.566055 0.00977336 0.00971856 8.27843e-06 0.00974507 1.71493e-07 272.879 
-0.33 -0.67 -0.247224 0.570407 0.00975978 0.0097012 4.11226e-06 0.00974305 1.7156e-07 272.716 
-0.33 -0.75 -0.113108 0.199723 0.0097537 0.00971272 1.00823e-05 0.00973712 1.71363e-07 272.863 
-0.31 -0.73 -0.472586 0.541239 0.00976706 0.00972348 1.12496e-05 0.00974714 1.7154e-07 272.862 
-0.29 -0.73 -0.292197 0.637412 0.00976881 0.00970545 1.14695e-05 0.00974486 1.71398e-07 273.023 
-0.33 -0.71 -0.533391 0.17237 0.00976664 0.00971192 1.53413e-05 0.00974621 1.71554e-07 272.813 
-0.27 -0.73 -0.486751 0.582759 0.00976786 0.00971835 1.61255e-05 0.00975152 1.71434e-07 273.153 
-0.31 -0.71 -0.386636 0.392251 0.00976603 0.00972242 1.15424e-05 0.00975147 1.71624e-07 272.85 
-0.29 -0.71 -0.452604 0.590656 0.00976282 0.00970164 1.47513e-05 0.00974016 1.7127e-07 273.097 
-0.33 -0.69 -0.323379 0.318854 0.00977962 0.00970812 1.48598e-06 0.00975036 1.71755e-07 272.61 
-0.27 -0.71 -0.37749 0.619937 0.00976882 0.00971217 1.11155e-05 0.00974076 1.71221e-07 273.191 
-0.31 -0.69 -0.513004 0.375625 0.00978386 0.00972109 1.21335e-05 0.00976144 1.71747e-07 272.933 
-0.29 -0.69 -0.504405 0.667354 0.00978101 0.00970689 1.53122e-05 0.00974908 1.71532e-07 272.928 
-0.27 -0.69 -0.333128 0.40926 0.00978332 0.00971468 8.46765e-06 0.00975099 1.71296e-07 273.358 
-0.31 -0.67 -0.443438 0.462721 0.009758 0.00971081 1.01463e-05 0.00974072 1.71495e-07 272.753 
-0.29 -0.67 -0.421413 0.427389 0.00976475 0.0097126 1.09164e-05 0.009744 1.71378e-07 273.032 
-0.41 -0.83 -0.103392 0.236648 0.00975461 0.00972626 2.45888e-06 0.00974306 1.71526e-07 272.769 
-0.39 -0.83 -0.0781679 0.318222 0.0097492 0.00972297 2.38443e-06 0.00973259 1.71386e-07 272.699 
-0.37 -0.83 -0.141338 0.217051 0.00974207 0.00971381 5.0705e-06 0.00973013 1.71227e-07 272.882 
-0.35 -0.83 -0.359482 0.0877079 0.00975024 0.00971791 1.29325e-05 0.00973139 1.71261e-07 272.864 
-0.33 -0.83 -0.237487 0.305176 0.00974973 0.00972068 1.36847e-05 0.00973429 1.71172e-07 273.087 
-0.31 -0.83 -0.151705 -0.189899 0.00974301 0.00970879 1.54123e-05 0.00973375 1.71366e-07 272.763 
-0.29 -0.83 -0.387779 0.210074 0.00975131 0.00972065 1.9472e-05 0.00974587 1.71282e-07 273.237 
-0.27 -0.83 -0.468297 0.32457 0.00975089 0.00971642 3.75058e-06 0.00974428 1.71266e-07 273.217 
-0.27 -0.67 -0.475327 0.52377 0.00975806 0.00971515 1.67011e-05 0.00974111 1.71315e-07 273.051 
-0.25 -0.67 -0.452631 0.525629 0.00976705 0.00972152 6.86393e-06 0.00975461 1.71481e-07 273.165 
-0.25 -0.81 -0.447747 0.294893 0.00976076 0.0097114 5.20845e-06 0.00974659 1.71492e-07 272.922 
-0.25 -0.79 -0.433119 0.217905 0.00977044 0.00972419 1.87754e-05 0.00974857 1.71452e-07 273.041 
-0.35 -0.55 -0.281201 0.709222 0.00978281 0.00971317 8.41255e-06 0.00974755 1.7149e-07 272.953 
-0.39 -0.53 -0.161045 0.927263 0.00977667 0.00969176 3.44287e-06 0.00974207 1.71433e-07 272.89 
-0.37 -0.57 -0.315589 0.671151 0.00977686 0.00970265 7.86866e-06 0.00974689 1.71372e-07 273.121 
-0.41 -0.55 -0.1585 0.954726 0.00976007 0.00970209 2.4044e-06 0.00973584 1.71487e-07 272.629 
-0.45 -0.53 0.0103585 0.678517 0.00976559 0.00969771 -8.21169e-07 0.00973253 1.71382e-07 272.704 
-0.35 -0.57 -0.266398 0.670169 0.00977949 0.00970671 2.04437e-05 0.00974299 1.71437e-07 272.91 
-0.39 -0.55 -0.195554 0.804833 0.00976155 0.00969173 4.48193e-06 0.00974228 1.71426e-07 272.906 
-0.43 -0.53 -0.121377 0.695618 0.00977343 0.00969489 6.04263e-06 0.00973683 1.71533e-07 272.583 
-0.47 -0.51 -0.0896446 0.75053 0.00976774 0.00969873 -2.94733e-06 0.0097336 1.71542e-07 272.48 
-0.37 -0.55 -0.2679 0.697568 0.00976396 0.00968792 6.37151e-06 0.00973489 1.71184e-07 273.085 
-0.41 -0.53 -0.120895 0.830947 0.00977965 0.00970324 -3.98996e-07 0.0097454 1.71537e-07 272.818 
-0.45 -0.51 -0.315231 0.757982 0.00976766 0.00969129 1.51796e-06 0.00973543 1.71516e-07 272.571 
-0.37 -0.53 -0.163097 0.766185 0.00977625 0.0096931 1.26583e-06 0.00973821 1.71425e-07 272.794 
-0.41 -0.51 -0.242706 0.81599 0.00976283 0.00969798 9.91667e-07 0.00973572 1.71447e-07 272.689 
-0.35 -0.53 -0.315344 0.75929 0.00976878 0.00970005 1.04871e-05 0.00973598 1.71423e-07 272.735 
-0.39 -0.51 -0.34254 0.930029 0.00976948 0.00969323 1.49289e-06 0.00973644 1.71514e-07 272.602 
-0.37 -0.51 -0.407275 0.888386 0.00976531 0.00968692 7.59723e-06 0.00972819 1.71248e-07 272.795 
-0.35 -0.51 -0.476701 0.824048 0.00976701 0.00969733 9.52118e-06 0.00972893 1.71359e-07 272.639 
-0.49 -0.65 0.104091 0.449684 0.00977142 0.00971378 1.0568e-05 0.00974428 1.71413e-07 272.984 
-0.47 -0.65 -0.0405424 0.448101 0.00977257 0.00972343 1.99932e-06 0.00975239 1.71633e-07 272.861 
-0.45 -0.65 0.0205389 0.520489 0.00976821 0.00972281 4.29364e-06 0.00974844 1.71719e-07 272.613 
-0.49 -0.63 -0.00842305 0.410378 0.00976116 0.00972041 1.63445e-07 0.00974705 1.71719e-07 272.575 
-0.43 -0.65 0.0970005 0.680883 0.00976063 0.00969879 4.53073e-06 0.00973535 1.71459e-07 272.66 
-0.47 -0.63 0.0262349 0.515969 0.00976416 0.00971748 -9.60004e-07 0.00974549 1.71669e-07 272.61 
-0.41 -0.65 0.0495115 0.505821 0.00976679 0.00970643 1.16596e-05 0.00974017 1.71414e-07 272.867 
-0.45 -0.63 -0.0156329 0.483643 0.00977156 0.00972087 7.75776e-06 0.00975136 1.71672e-07 272.77 
-0.49 -0.61 -0.0489609 0.526167 0.009764 0.0097177 -9.68095e-06 0.00974721 1.71574e-07 272.81 
-0.39 -0.65 -0.142548 0.365741 0.00976485 0.00971292 7.36839e-06 0.0097454 1.71402e-07 273.032 
-0.43 -0.63 -0.168695 0.66909 0.00977818 0.00970457 7.51583e-06 0.00973912 1.71338e-07 272.958 
-0.47 -0.61 -0.221067 0.495423 0.00976519 0.00971338 2.53614e-06 0.00974206 1.71502e-07 272.779 
-0.37 -0.65 -0.340038 0.624837 0.0097667 0.00969856 1.15382e-06 0.00973394 1.71275e-07 272.914 
-0.41 -0.63 -0.217813 0.654359 0.00977228 0.0096974 3.22859e-06 0.00973706 1.71444e-07 272.731 
-0.45 -0.61 -0.264427 0.633602 0.00976472 0.00971598 -8.64322e-06 0.00974079 1.71404e-07 272.899 
-0.49 -0.59 -0.100885 0.537752 0.00977775 0.00970756 -6.6933e-06 0.00975078 1.71686e-07 272.731 
-0.35 -0.65 -0.379394 0.466624 0.00977577 0.00972032 9.88684e-06 0.00974803 1.71584e-07 272.816 
-0.39 -0.63 -0.206139 0.609417 0.00978251 0.00971727 1.06283e-05 0.0097497 1.71586e-07 272.86 
-0.43 -0.61 -0.0930086 0.740485 0.00977749 0.00970017 5.18811e-06 0.00974008 1.71356e-07 272.957 
-0.47 -0.59 -0.00783546 0.638921 0.00978552 0.00972009 -8.52412e-06 0.00975685 1.71671e-07 272.925 
-0.37 -0.63 -0.348978 0.589525 0.00976636 0.00969862 9.75046e-06 0.00973425 1.71366e-07 272.777 
-0.41 -0.61 -0.224658 0.611673 0.00978016 0.00970991 7.99051e-06 0.00974353 1.7141e-07 272.967 
-0.45 -0.59 -0.0571034 0.464146 0.00978579 0.00971431 -1.67735e-06 0.0097541 1.71648e-07 272.884 
-0.49 -0.57 -0.0231687 0.556383 0.00978519 0.00970641 -7.9018e-06 0.00974472 1.71532e-07 272.807 
-0.35 -0.63 -0.409703 0.544719 0.00976246 0.00970851 8.6748e-06 0.0097368 1.714e-07 272.795 
-0.39 -0.61 -0.1421 0.488641 0.00977772 0.0097021 5.9232e-06 0.00973915 1.7138e-07 272.892 
-0.43 -0.59 -0.0974253 0.855224 0.00977182 0.00969146 2.64909e-06 0.00974212 1.71592e-07 272.637 
-0.47 -0.57 -0.0524216 0.586183 0.00977682 0.00971894 -7.2599e-06 0.00974481 1.7154e-07 272.796 
-0.37 -0.61 -0.118159 0.761601 0.0097823 0.00970842 1.44346e-05 0.00974394 1.71548e-07 272.76 
-0.41 -0.59 -0.0137141 0.575671 0.00977671 0.00970726 1.28564e-06 0.00974052 1.71465e-07 272.796 
-0.45 -0.57 -0.0473122 0.647469 0.00977068 0.00970189 2.08826e-06 0.00973839 1.71364e-07 272.896 
-0.49 -0.55 -0.0146974 0.598799 0.00976411 0.00970556 -1.00879e-05 0.00973948 1.7149e-07 272.727 
-0.35 -0.61 -0.108777 0.517193 0.00977515 0.00970287 8.6334e-06 0.00973633 1.71339e-07 272.878 
-0.39 -0.59 -0.0797543 0.508401 0.00977406 0.00968835 8.82724e-06 0.00973711 1.71398e-07 272.806 
-0.43 -0.57 0.0550626 0.660863 0.00977561 0.00969306 9.88802e-07 0.00973906 1.71357e-07 272.926 
-0.47 -0.55 -0.0793094 0.752728 0.00977316 0.0097027 1.07597e-06 0.00974391 1.71658e-07 272.583 
-0.33 -0.61 -0.342542 0.633749 0.00977237 0.00969938 1.7312e-05 0.00973935 1.71287e-07 273.046 
-0.37 -0.59 -0.157287 0.682406 0.0097778 0.00971727 1.79029e-05 0.00974942 1.71588e-07 272.849 
-0.41 -0.57 -0.0940942 0.68258 0.00977271 0.0097031 1.23734e-05 0.00973964 1.71395e-07 272.883 
-0.45 -0.55 -0.168986 0.510129 0.00976844 0.00970182 5.6657e-06 0.00973136 1.71301e-07 272.799 
-0.49 -0.53 0.018464 0.617977 0.0097601 0.00969668 -3.86438e-06 0.00973483 1.71417e-07 272.712 
-0.35 -0.59 -0.270948 0.677459 0.00977254 0.00969997 1.40983e-05 0.00973304 1.71444e-07 272.62 
-0.39 -0.57 -0.371962 0.795965 0.00977367 0.00968722 4.14349e-06 0.00974021 1.71381e-07 272.92 
-0.43 -0.55 -0.157891 0.585816 0.00976168 0.00968911 5.91498e-06 0.00972929 1.71375e-07 272.625 
-0.47 -0.53 0.000235528 0.627136 0.00975761 0.00969825 -2.27777e-06 0.00972841 1.71352e-07 272.636 
-0.29 -0.57 -0.563772 0.629238 0.00977148 0.00970844 2.06392e-05 0.00974287 1.71388e-07 272.983 
-0.33 -0.55 -0.4458 0.850774 0.0097861 0.00970847 1.28539e-05 0.00974765 1.71545e-07 272.868 
-0.29 -0.61 -0.344 0.680872 0.00976664 0.00971958 9.12794e-06 0.00974666 1.71628e-07 272.708 
-0.33 -0.59 -0.346507 0.894252 0.00977311 0.00970063 1.25392e-05 0.00973633 1.71204e-07 273.095 
-0.27 -0.61 -0.4167 0.516864 0.00977589 0.00970863 1.42079e-05 0.00974578 1.71591e-07 272.742 
-0.31 -0.59 -0.586099 0.726704 0.00978037 0.00970839 1.16993e-05 0.0097434 1.71494e-07 272.829 
-0.29 -0.59 -0.340776 0.465519 0.00978234 0.00971842 1.39102e-05 0.00974821 1.71559e-07 272.861 
-0.33 -0.57 -0.32031 0.881852 0.0097749 0.0097071 9.0614e-06 0.00974016 1.71341e-07 272.983 
-0.27 -0.59 -0.421354 0.643774 0.00976873 0.00969957 1.58024e-05 0.00973502 1.7137e-07 272.792 
-0.31 -0.57 -0.319714 0.702982 0.0097728 0.00970391 5.65515e-06 0.0097386 1.714e-07 272.846 
-0.27 -0.57 -0.646415 0.652118 0.00976906 0.00970588 2.77165e-05 0.00975016 1.7162e-07 272.818 
-0.31 -0.55 -0.256424 0.933452 0.00976953 0.0097002 1.96669e-05 0.009741 1.71434e-07 272.859 
-0.29 -0.55 -0.412617 0.640041 0.00975641 0.00969307 2.12119e-05 0.0097262 1.71263e-07 272.716 
-0.33 -0.53 -0.198621 0.985418 0.0097682 0.00969688 1.72699e-05 0.00973394 1.71255e-07 272.945 
-0.27 -0.55 -0.333929 0.593697 0.00976253 0.00971317 1.69938e-05 0.00973372 1.71368e-07 272.759 
-0.31 -0.53 -0.354953 0.754658 0.00976902 0.00970224 2.78291e-05 0.00974451 1.7152e-07 272.82 
-0.29 -0.53 -0.28213 0.680102 0.00978533 0.00970153 1.66798e-05 0.00975055 1.71502e-07 273.017 
-0.33 -0.51 -0.386622 0.783448 0.00976289 0.00968447 1.9473e-05 0.00972848 1.71103e-07 273.034 
-0.27 -0.53 -0.479667 0.844204 0.00977527 0.00970868 2.09812e-05 0.0097396 1.71284e-07 273.058 
-0.31 -0.51 -0.280541 0.832667 0.00976799 0.00970577 1.61989e-05 0.00973315 1.71288e-07 272.872 
-0.29 -0.51 -0.430852 0.808683 0.00975581 0.00970106 2.40054e-05 0.00973594 1.71354e-07 272.844 
-0.27 -0.51 -0.543037 1.14559 0.00975632 0.00970152 3.08154e-05 0.0097334 1.71235e-07 272.962 
-0.33 -0.65 -0.366858 0.457541 0.00977697 0.00970096 1.36424e-05 0.00974258 1.71412e-07 272.938 
-0.31 -0.65 -0.256462 0.689916 0.00977394 0.00971332 1.43307e-05 0.00974819 1.71492e-07 272.967 
-0.29 -0.65 -0.545121 0.493105 0.00976429 0.0097005 1.02346e-05 0.00973459 1.71219e-07 273.021 
-0.33 -0.63 -0.323146 0.550254 0.00976185 0.00970625 7.1858e-06 0.00974339 1.71528e-07 272.775 
-0.27 -0.65 -0.534242 0.436247 0.00977488 0.00972269 8.97064e-06 0.00974935 1.71494e-07 272.996 
-0.31 -0.63 -0.527384 0.677141 0.00976057 0.00970065 1.39384e-05 0.00973574 1.71277e-07 272.96 
-0.25 -0.65 -0.495259 0.406155 0.0097671 0.00971794 8.99504e-06 0.00974788 1.71575e-07 272.826 
-0.29 -0.63 -0.483798 0.446975 0.00977081 0.0097206 1.48648e-05 0.00974478 1.71517e-07 272.832 
-0.27 -0.63 -0.49415 0.465309 0.00975882 0.00971297 1.13236e-05 0.00973672 1.71527e-07 272.591 
-0.31 -0.61 -0.341642 0.608889 0.00977193 0.00970654 1.28596e-05 0.00974674 1.71616e-07 272.729 
-0.49 -0.67 -0.0115494 0.493049 0.00977676 0.00971238 -4.98885e-06 0.00974387 1.7149e-07 272.849 
-0.47 -0.67 0.038906 0.407441 0.00977216 0.00972276 1.01187e-06 0.00974777 1.71584e-07 272.809 
-0.45 -0.67 0.0588753 0.46731 0.00977011 0.00972181 2.26774e-06 0.00974904 1.71605e-07 272.811 
-0.43 -0.67 -0.112607 0.606582 0.00977585 0.00971221 7.98923e-06 0.00974679 1.71591e-07 272.77 