ITEM: TIMESTEP
856500
ITEM: NUMBER OF CELLS
5000
ITEM: BOX BOUNDS ss ss pp
-0.5 0.5
-1 1
-0.5 0.5
ITEM: CELLS xc yc f_U[*] f_V[*] f_Tau[1] f_Tau[2] f_Tau[3] f_Press[*] f_Mrho[*] f_Ttra[*] 
-0.49 -0.99 -0.117885 0.100829 0.00977301 0.00973114 1.07382e-05 0.00976077 1.71852e-07 272.747 
-0.47 -0.99 -0.217696 -0.0317575 0.00976098 0.00971921 -7.52446e-06 0.00974384 1.71632e-07 272.623 
-0.45 -0.99 -0.301312 -0.0138014 0.00974409 0.00971831 3.66012e-06 0.00973338 1.7142e-07 272.667 
-0.49 -0.97 -0.155136 0.177883 0.00973825 0.00972503 1.59054e-05 0.00973185 1.71105e-07 273.126 
-0.43 -0.99 -0.425604 0.174363 0.00973111 0.00974312 5.87114e-06 0.00974741 1.71285e-07 273.275 
-0.47 -0.97 -0.174776 0.177801 0.00973648 0.00972102 1.82341e-05 0.00973631 1.71436e-07 272.724 
-0.41 -0.99 -0.295279 -0.107035 0.0097229 0.00974723 8.62193e-07 0.00974091 1.71441e-07 272.844 
-0.45 -0.97 -0.109637 -0.0235763 0.0097323 0.00972295 5.02281e-07 0.00972959 1.7133e-07 272.703 
-0.49 -0.95 0.11788 0.18243 0.00970729 0.00971079 -9.04945e-06 0.00971471 1.70972e-07 272.857 
-0.39 -0.99 -0.203928 -0.145569 0.0097227 0.00970708 -8.08174e-06 0.00971233 1.70619e-07 273.355 
-0.43 -0.97 0.119334 0.0316852 0.00975232 0.00974628 -4.96879e-06 0.00974832 1.71402e-07 273.114 
-0.47 -0.95 0.101255 0.171283 0.00972921 0.00972546 5.06463e-06 0.0097227 1.71237e-07 272.658 
-0.37 -0.99 -0.0468154 0.000748183 0.00972152 0.00970895 1.36923e-05 0.00971607 1.70939e-07 272.948 
-0.41 -0.97 0.0763651 -0.112046 0.0097446 0.00974765 7.20564e-06 0.00974885 1.71159e-07 273.517 
-0.45 -0.95 0.198149 -0.205125 0.00973864 0.00974737 5.13488e-06 0.00974871 1.71733e-07 272.599 
-0.49 -0.93 0.0413178 0.0756081 0.0097496 0.00972207 9.61896e-07 0.00973986 1.71431e-07 272.83 
-0.35 -0.99 -0.0494161 -0.127736 0.00970396 0.00968661 1.27697e-05 0.00968801 1.70583e-07 272.728 
-0.39 -0.97 0.197244 -0.118378 0.00971884 0.00970532 1.78119e-05 0.00972423 1.71145e-07 272.848 
-0.43 -0.95 0.17004 0.00534314 0.00973426 0.00972349 -5.53714e-07 0.00973033 1.71296e-07 272.78 
-0.47 -0.93 0.196063 0.042278 0.00974855 0.00972456 -5.58266e-06 0.00973784 1.7136e-07 272.887 
-0.33 -0.99 0.106525 0.11409 0.00970603 0.00969968 7.08882e-06 0.009695 1.70669e-07 272.787 
-0.37 -0.97 0.0185347 -0.0222877 0.00970387 0.00969877 1.64152e-05 0.00970025 1.70793e-07 272.737 
-0.41 -0.95 0.0437822 -0.13246 0.00972844 0.00973381 1.21102e-05 0.00972848 1.71352e-07 272.639 
-0.45 -0.93 0.191741 -0.0600677 0.00974651 0.00974101 -5.42381e-06 0.00973412 1.71485e-07 272.585 
-0.49 -0.91 0.141935 -0.0155749 0.00979424 0.00974357 1.48596e-05 0.00977046 1.71533e-07 273.526 
-0.35 -0.97 -0.0716037 -0.150433 0.00971097 0.00969711 9.43441e-06 0.00970104 1.7063e-07 273.02 
-0.39 -0.95 -0.0295295 -0.17639 0.0097313 0.00971062 2.11344e-05 0.00971552 1.71085e-07 272.7 
-0.43 -0.93 0.367183 -0.0698087 0.00974356 0.00971472 1.44089e-06 0.00971912 1.71107e-07 272.766 
-0.47 -0.91 -0.148038 0.00124795 0.00977164 0.00971849 -1.59069e-06 0.00974136 1.71505e-07 272.755 
-0.33 -0.97 -0.260714 -0.0199159 0.0097077 0.00969189 7.22741e-06 0.00970933 1.7102e-07 272.63 
-0.37 -0.95 -0.167878 0.120074 0.00974175 0.00970612 2.47698e-05 0.00972476 1.71096e-07 272.941 
-0.41 -0.93 0.0732846 0.0266342 0.00974759 0.00973212 2.92828e-05 0.00972441 1.71246e-07 272.692 
-0.45 -0.91 0.0817852 -0.289024 0.00977522 0.00974007 4.20675e-06 0.00975064 1.71478e-07 273.059 
-0.49 -0.89 -0.147298 0.164966 0.00979547 0.00975169 6.33098e-06 0.00976307 1.71648e-07 273.135 
-0.35 -0.95 -0.102547 -0.000400888 0.0097501 0.00970113 1.06396e-06 0.00972683 1.71249e-07 272.756 
-0.39 -0.93 -0.194054 0.0963181 0.00973393 0.00970465 1.34254e-05 0.00971331 1.7099e-07 272.788 
-0.43 -0.91 -0.19915 0.0215607 0.00975299 0.00971297 1.32627e-05 0.00972654 1.70835e-07 273.409 
-0.47 -0.89 0.0729151 -0.191511 0.00978106 0.00973022 1.29207e-05 0.00975007 1.7179e-07 272.546 
-0.37 -0.93 -0.149771 0.0511011 0.00974713 0.00971058 -7.02647e-06 0.00973697 1.71379e-07 272.833 
-0.41 -0.91 -0.225806 0.539057 0.00975363 0.00970485 9.05421e-06 0.00972019 1.71215e-07 272.623 
-0.45 -0.89 -0.306935 0.0439677 0.00976311 0.00972202 4.22284e-06 0.00974127 1.71325e-07 273.039 
-0.49 -0.87 0.0623902 0.156253 0.00974131 0.0097252 6.61509e-07 0.00972424 1.71137e-07 272.861 
-0.35 -0.93 -0.66007 0.370433 0.00975686 0.00970363 3.27596e-06 0.00972203 1.71189e-07 272.717 
-0.39 -0.91 -0.223176 -0.0744086 0.00977974 0.00973141 1.56389e-05 0.00976188 1.71685e-07 273.043 
-0.43 -0.89 -0.530444 0.259603 0.00977368 0.00971581 1.94854e-05 0.00974729 1.71279e-07 273.281 
-0.47 -0.87 0.0291799 0.116864 0.00975387 0.0097334 8.09598e-06 0.00974167 1.71405e-07 272.923 
-0.37 -0.91 -0.334753 0.282138 0.0097591 0.00972063 7.32948e-06 0.00974485 1.71393e-07 273.031 
-0.41 -0.89 -0.48534 0.346083 0.00976916 0.00970794 2.00004e-06 0.00974281 1.71452e-07 272.88 
-0.45 -0.87 -0.441396 0.200914 0.00976164 0.00970376 1.28779e-05 0.00974268 1.71435e-07 272.903 
-0.49 -0.85 -0.00228034 0.120852 0.00975163 0.00971735 -7.50836e-06 0.00972641 1.71277e-07 272.699 
-0.35 -0.91 -0.0597301 0.288178 0.00974149 0.00969832 -9.53042e-07 0.00971165 1.70774e-07 273.088 
-0.39 -0.89 -0.43774 0.114985 0.00976013 0.00972137 1.38594e-05 0.00974585 1.71439e-07 272.987 
-0.43 -0.87 -0.215079 0.168398 0.00975024 0.00973396 1.23963e-05 0.00974564 1.71645e-07 272.653 
-0.47 -0.85 -0.00311248 0.379313 0.00975847 0.00972606 1.46886e-05 0.00974686 1.7138e-07 273.108 
-0.33 -0.91 -0.389829 0.10336 0.00975255 0.00971042 6.46175e-07 0.00972719 1.71224e-07 272.806 
-0.37 -0.89 -0.314409 -0.0653388 0.00977251 0.00973562 2.03505e-05 0.00975466 1.71293e-07 273.465 
-0.41 -0.87 -0.151699 0.326632 0.00975804 0.00972161 1.30078e-05 0.0097474 1.71563e-07 272.832 
-0.45 -0.85 0.0433397 0.197311 0.00975768 0.00970692 1.64587e-05 0.0097352 1.71308e-07 272.896 
-0.35 -0.89 -0.336411 0.461643 0.00976768 0.00970516 3.33829e-06 0.00972815 1.71158e-07 272.938 
-0.39 -0.87 -0.248416 -0.0309384 0.00976704 0.00971024 -6.20647e-07 0.00974148 1.71551e-07 272.685 
-0.43 -0.85 -0.271478 0.226223 0.00977442 0.00973142 -3.78996e-06 0.00974592 1.71639e-07 272.669 
-0.37 -0.87 -0.414794 0.0851871 0.0097711 0.0097324 6.04357e-06 0.00974732 1.71497e-07 272.934 
-0.41 -0.85 -0.361065 0.402362 0.0097711 0.00972245 1.08026e-05 0.00974695 1.71582e-07 272.79 
-0.35 -0.87 -0.110396 0.386306 0.00978283 0.00972938 7.10958e-06 0.00975739 1.71534e-07 273.158 
-0.39 -0.85 -0.476153 0.441058 0.00976506 0.00972495 2.5011e-07 0.00974344 1.71622e-07 272.628 
-0.33 -0.87 -0.276312 0.129748 0.00977461 0.00970781 6.86539e-06 0.00974382 1.71397e-07 272.995 
-0.37 -0.85 -0.470565 -0.360719 0.00976681 0.00971988 3.44708e-06 0.00974723 1.71512e-07 272.909 
-0.35 -0.85 -0.500135 0.0948943 0.00976369 0.0097295 8.68539e-06 0.00974985 1.71252e-07 273.396 
-0.33 -0.85 -0.401896 0.52796 0.00975493 0.0096991 1.78581e-05 0.0097198 1.70901e-07 273.113 
-0.31 -0.99 0.0496864 0.0635574 0.00970577 0.00968646 1.29558e-05 0.00969646 1.70873e-07 272.502 
-0.29 -0.99 -0.293019 0.28832 0.00971475 0.00970796 3.4312e-06 0.00970089 1.70833e-07 272.69 
-0.27 -0.99 -0.26455 -0.316083 0.00974518 0.00972433 1.24071e-06 0.00972594 1.70937e-07 273.229 
-0.31 -0.97 -0.647402 0.295404 0.00973667 0.00970667 -1.06245e-05 0.00972788 1.71365e-07 272.6 
-0.29 -0.97 -0.499772 0.106197 0.00975117 0.00971037 -1.46139e-06 0.00973882 1.71399e-07 272.853 
-0.33 -0.95 -0.332611 0.300377 0.0097594 0.00971104 -2.82512e-06 0.00973382 1.71427e-07 272.669 
-0.27 -0.97 -0.00737206 -0.489287 0.00973965 0.00971727 -1.7996e-06 0.00973947 1.7158e-07 272.583 
-0.31 -0.95 -0.14299 0.426483 0.00974045 0.00969893 -2.87784e-06 0.00971844 1.71441e-07 272.215 
-0.29 -0.95 -0.0375199 -0.293139 0.00973239 0.00969422 -9.16173e-07 0.00971117 1.71359e-07 272.141 
-0.33 -0.93 -0.399919 0.0881625 0.00975467 0.00971024 4.75738e-06 0.00973119 1.71285e-07 272.821 
-0.27 -0.95 -0.424777 -0.403773 0.00974136 0.00974219 -1.5126e-06 0.00974282 1.71475e-07 272.844 
-0.31 -0.93 -0.292848 0.143507 0.00975908 0.00970373 4.20734e-06 0.00972864 1.71395e-07 272.574 
-0.29 -0.93 -0.482475 0.0455293 0.00976202 0.00969672 -4.33556e-06 0.00973225 1.71603e-07 272.345 
-0.27 -0.93 -0.302963 -0.283609 0.00978316 0.00973711 -8.76835e-06 0.00976688 1.72044e-07 272.614 
-0.31 -0.91 -0.388191 0.308645 0.00976576 0.00970685 2.07098e-06 0.00974249 1.71569e-07 272.685 
-0.29 -0.91 -0.387607 -0.167779 0.00976012 0.00970851 -1.57846e-05 0.00972667 1.71273e-07 272.713 
-0.33 -0.89 -0.191566 0.0740202 0.00976759 0.00971694 -1.04485e-05 0.00973775 1.71166e-07 273.195 
-0.27 -0.91 -0.379042 -0.217617 0.00975132 0.00971607 -7.1276e-06 0.00972539 1.71371e-07 272.521 
-0.31 -0.89 -0.153666 0.127157 0.00977094 0.00970023 -5.78737e-06 0.00974334 1.71549e-07 272.741 
-0.29 -0.89 -0.0304416 -0.112393 0.00976886 0.00972303 -4.50556e-06 0.00974618 1.71381e-07 273.088 
-0.27 -0.89 -0.2925 -0.102617 0.00974808 0.00970072 1.69225e-06 0.00973131 1.71377e-07 272.677 
-0.31 -0.87 -0.34102 0.00290884 0.00974526 0.00970263 6.32088e-06 0.00972833 1.71382e-07 272.587 
-0.29 -0.87 -0.241926 -0.167779 0.00972695 0.00971838 1.15265e-05 0.00972936 1.71191e-07 272.918 
-0.27 -0.87 -0.271289 0.330422 0.00972711 0.00970699 3.17016e-06 0.00971313 1.71187e-07 272.47 
-0.31 -0.85 -0.20801 -0.29664 0.00976213 0.00970956 1.95236e-05 0.00973167 1.7154e-07 272.429 
-0.29 -0.85 -0.0558942 -0.0774489 0.00975782 0.00971462 1.85495e-05 0.00974335 1.71481e-07 272.85 
-0.27 -0.85 -0.276564 0.486849 0.00975221 0.00971644 1.02315e-05 0.0097419 1.70979e-07 273.61 
-0.25 -0.99 -0.172661 0.0508231 0.00976259 0.00975304 8.02144e-08 0.00975078 1.71484e-07 273.053 
-0.25 -0.97 0.00308888 0.316483 0.00974643 0.00975079 -1.50382e-05 0.00975137 1.71517e-07 273.017 
-0.25 -0.95 -0.328011 0.235772 0.00972812 0.00974026 -4.53668e-06 0.00974512 1.71455e-07 272.94 
-0.25 -0.93 -0.292044 0.0406374 0.00976911 0.00973883 9.39435e-06 0.00975394 1.71564e-07 273.013 
-0.25 -0.91 -0.0722669 -0.205958 0.0097517 0.00972418 1.20751e-05 0.00973534 1.71481e-07 272.624 
-0.25 -0.89 -0.606482 -0.133474 0.00975713 0.00971895 9.34095e-06 0.0097316 1.71158e-07 273.035 
-0.25 -0.87 -0.641498 -0.0878773 0.00972428 0.00970417 3.59989e-06 0.00972031 1.70889e-07 273.146 
-0.25 -0.85 -0.190473 0.186494 0.00975271 0.00971007 -5.27826e-06 0.00973704 1.71107e-07 273.268 
-0.25 -0.83 -0.149371 0.012233 0.00976742 0.0097047 5.25231e-06 0.00975225 1.71201e-07 273.545 
-0.33 -0.81 0.130476 0.133684 0.00976038 0.00970426 1.03671e-05 0.00972687 1.71203e-07 272.829 
-0.31 -0.81 -0.157493 0.13188 0.00978072 0.00971667 6.8953e-06 0.00974308 1.71241e-07 273.224 
-0.29 -0.81 -0.233327 0.00157307 0.00978406 0.00972088 -3.44078e-06 0.00975558 1.71416e-07 273.295 
-0.27 -0.81 -0.079126 0.169628 0.00978255 0.00972326 9.0119e-06 0.00976689 1.71587e-07 273.34 
-0.31 -0.79 0.0573082 0.193343 0.00976752 0.00972277 1.41693e-06 0.00973799 1.71462e-07 272.729 
-0.29 -0.79 -0.304441 0.216016 0.00975654 0.00972065 -2.35392e-06 0.00973086 1.71335e-07 272.732 
-0.33 -0.77 -0.215192 0.208732 0.00976129 0.00972088 1.09085e-05 0.00973524 1.7132e-07 272.878 
-0.27 -0.79 -0.616791 0.223206 0.00974237 0.0096955 5.63201e-06 0.00972411 1.71058e-07 272.984 
-0.31 -0.77 -0.296244 0.257342 0.00975112 0.00970526 3.60711e-06 0.00973089 1.71336e-07 272.731 
-0.29 -0.77 -0.276673 0.656852 0.00976624 0.00972598 1.88194e-05 0.00974975 1.71709e-07 272.666 
-0.27 -0.77 -0.458667 0.354512 0.00976641 0.00969865 9.38361e-06 0.00974266 1.71574e-07 272.681 
-0.31 -0.75 0.0828313 0.846198 0.00974637 0.00971655 3.47446e-06 0.00974458 1.71647e-07 272.619 
-0.29 -0.75 -0.435518 0.787742 0.00974834 0.00971333 6.93573e-06 0.00973303 1.71309e-07 272.834 
-0.27 -0.75 -0.585952 0.58951 0.00975859 0.00970269 1.75469e-05 0.00973021 1.71247e-07 272.854 
-0.49 -0.83 -0.107009 0.201591 0.00974957 0.00971036 8.75408e-06 0.00973494 1.71322e-07 272.866 
-0.47 -0.83 -0.0262704 0.270442 0.0097504 0.00971472 -3.78647e-07 0.00973633 1.71544e-07 272.552 
-0.45 -0.83 0.120477 0.239337 0.00975221 0.00972557 -2.34935e-06 0.00974203 1.71285e-07 273.125 
-0.49 -0.81 0.0539988 0.0535484 0.00974516 0.00971768 -5.93445e-06 0.00974341 1.71327e-07 273.096 
-0.43 -0.83 0.168308 0.298091 0.00973742 0.00970817 9.98149e-06 0.00972181 1.71294e-07 272.543 
-0.47 -0.81 -0.0816164 0.416383 0.00974536 0.00971957 -3.66203e-06 0.00975001 1.71462e-07 273.067 
-0.45 -0.81 -0.145355 0.162216 0.00975402 0.00971032 1.15389e-05 0.00974025 1.71651e-07 272.491 
-0.49 -0.79 -0.230702 0.411776 0.0097363 0.00971587 1.22538e-05 0.00972955 1.7129e-07 272.767 
-0.43 -0.81 -0.271633 0.466494 0.0097752 0.0097244 3.85295e-06 0.00975087 1.71796e-07 272.559 
-0.47 -0.79 -0.239657 0.260177 0.0097313 0.0097208 -2.14867e-06 0.00972676 1.7129e-07 272.688 
-0.41 -0.81 -0.422594 0.769295 0.00974821 0.00971104 1.38068e-05 0.00973925 1.71473e-07 272.747 
-0.45 -0.79 -0.435811 0.391755 0.00972638 0.00971779 -1.1509e-05 0.00972327 1.71209e-07 272.719 
-0.49 -0.77 0.202391 0.343696 0.00973152 0.00972386 -3.32921e-08 0.00972164 1.71106e-07 272.838 
-0.39 -0.81 -0.326805 0.117143 0.00975144 0.00972664 1.16722e-05 0.00976025 1.71641e-07 273.068 
-0.43 -0.79 -0.415348 0.497693 0.00973915 0.00971109 -3.54324e-06 0.00973133 1.71336e-07 272.743 
-0.47 -0.77 -0.0838986 0.465891 0.00974575 0.00972278 3.11778e-08 0.00973273 1.7122e-07 272.968 
-0.37 -0.81 0.206406 -0.0303678 0.00975497 0.00972015 -1.65517e-06 0.00973929 1.71449e-07 272.786 
-0.41 -0.79 -0.373898 0.587451 0.00976859 0.00971833 2.0072e-06 0.00974843 1.71797e-07 272.489 
-0.45 -0.77 -0.574428 0.820065 0.00975703 0.00973187 -6.04297e-06 0.0097484 1.71565e-07 272.857 
-0.35 -0.81 0.198621 -0.00944266 0.00974985 0.00971121 1.21939e-05 0.00974613 1.71395e-07 273.065 
-0.39 -0.79 0.0410243 -0.272771 0.00977232 0.00971838 8.31852e-06 0.00975016 1.71606e-07 272.84 
-0.43 -0.77 -0.599799 0.485164 0.00972835 0.00969963 -7.36146e-06 0.00971984 1.71154e-07 272.711 
-0.37 -0.79 -0.143326 0.0548047 0.00977812 0.00973143 1.75386e-05 0.00975163 1.71516e-07 273.026 
-0.41 -0.77 -0.263102 -0.00727148 0.00971838 0.00970534 -2.86742e-06 0.00971688 1.71349e-07 272.317 
-0.35 -0.79 -0.0774262 0.105579 0.00977129 0.00970754 7.22496e-06 0.00974005 1.71523e-07 272.69 
-0.39 -0.77 0.121844 -0.12064 0.00973233 0.00972317 -4.26975e-07 0.00974366 1.71552e-07 272.746 
-0.43 -0.75 0.208131 0.274002 0.00974949 0.00970196 -1.04281e-06 0.00973126 1.71445e-07 272.568 
-0.33 -0.79 -0.0438415 0.267474 0.00976582 0.00970769 5.22302e-07 0.00972963 1.71449e-07 272.515 
-0.37 -0.77 0.172305 0.0401637 0.00974467 0.00971616 1.24122e-06 0.00972802 1.71307e-07 272.697 
-0.41 -0.75 0.227602 0.0753516 0.00974891 0.00971114 2.65442e-06 0.00974201 1.71529e-07 272.735 
-0.35 -0.77 0.0448859 0.356624 0.00976095 0.00972317 1.517e-06 0.00975455 1.71266e-07 273.506 
-0.39 -0.75 -0.102792 0.0910405 0.00974672 0.00971391 -1.29536e-06 0.0097424 1.7152e-07 272.761 
-0.49 -0.75 -0.137802 0.369898 0.00974338 0.0097313 -5.0975e-06 0.0097387 1.7101e-07 273.47 
-0.47 -0.75 -0.111686 0.670847 0.00974806 0.00972867 -1.12894e-05 0.00973275 1.71088e-07 273.178 
-0.45 -0.75 0.265118 0.839425 0.00974266 0.00971798 -4.46654e-06 0.00973016 1.71407e-07 272.597 
-0.49 -0.73 -0.0904784 0.517857 0.00978678 0.0097329 7.87798e-06 0.00976584 1.7132e-07 273.736 
-0.47 -0.73 -0.116964 0.641966 0.00977138 0.00974502 1.59637e-06 0.00976493 1.71355e-07 273.654 
-0.45 -0.73 -0.125661 0.310577 0.00976349 0.00970359 -8.07014e-06 0.0097351 1.71406e-07 272.738 
-0.49 -0.71 -0.0695336 0.598947 0.00979551 0.0097415 1.04198e-05 0.00977927 1.71885e-07 273.212 
-0.43 -0.73 0.303082 0.400236 0.00975391 0.0097113 2.52847e-06 0.0097444 1.7148e-07 272.881 
-0.47 -0.71 -0.160414 0.622184 0.00980017 0.00974051 9.80731e-06 0.00977109 1.71699e-07 273.279 
-0.37 -0.75 -0.384751 -0.0858052 0.00972813 0.00972152 4.57997e-06 0.00972563 1.71464e-07 272.38 
-0.41 -0.73 0.224724 0.291598 0.00975013 0.00970475 -7.3085e-06 0.00973959 1.71405e-07 272.865 
-0.45 -0.71 0.308324 0.0178495 0.00977783 0.00971382 1.4443e-05 0.00974937 1.71653e-07 272.743 
-0.49 -0.69 -0.040315 0.542992 0.0097739 0.00972882 -9.38659e-06 0.00975465 1.71529e-07 273.09 
-0.35 -0.75 -0.125188 0.155364 0.00973266 0.00972643 7.78991e-06 0.00973469 1.71395e-07 272.743 
-0.39 -0.73 0.133918 -0.0552499 0.00975157 0.00970181 1.09481e-05 0.00972929 1.71247e-07 272.828 
-0.43 -0.71 0.041083 0.142518 0.00976486 0.00971716 6.05329e-06 0.00974442 1.71687e-07 272.552 
-0.47 -0.69 0.439075 0.228618 0.00977496 0.00971886 1.69357e-05 0.00975665 1.71551e-07 273.111 
-0.37 -0.73 0.301221 0.0612998 0.00976263 0.00973505 9.04549e-06 0.00974692 1.71754e-07 272.516 
-0.41 -0.71 0.345792 0.516097 0.009775 0.00969149 -8.96856e-07 0.00974668 1.71795e-07 272.443 
-0.45 -0.69 0.203389 0.342478 0.00980201 0.00972527 1.52382e-05 0.00976991 1.72e-07 272.768 
-0.35 -0.73 -0.144304 0.127169 0.00975027 0.0097227 3.82432e-06 0.00975222 1.71597e-07 272.913 
-0.39 -0.71 0.18178 0.140743 0.00978024 0.00971174 -1.57838e-06 0.00975312 1.71763e-07 272.675 
-0.43 -0.69 -0.0504747 0.262199 0.00980686 0.00973009 1.1108e-05 0.00977027 1.72319e-07 272.273 
-0.33 -0.73 -0.348516 0.0826238 0.00975339 0.00970591 1.20554e-05 0.00974656 1.71795e-07 272.44 
-0.37 -0.71 0.00589393 -0.0671778 0.00976566 0.00972296 1.28573e-05 0.00975756 1.71821e-07 272.706 
-0.41 -0.69 0.0508246 -0.029663 0.00978727 0.00970457 2.56424e-06 0.00974707 1.71785e-07 272.47 
-0.35 -0.71 -0.23534 0.520767 0.00976388 0.00972083 5.6389e-06 0.00977185 1.71919e-07 272.951 
-0.39 -0.69 0.0772061 0.387968 0.00976778 0.00969326 1.22606e-05 0.00973215 1.71637e-07 272.287 
-0.37 -0.69 -0.00327775 0.223412 0.00977978 0.00971566 9.41547e-06 0.00976029 1.71743e-07 272.907 
-0.35 -0.69 0.0777484 0.696805 0.00978195 0.00973184 1.84265e-05 0.00976457 1.71653e-07 273.169 
-0.35 -0.67 -0.142854 0.630598 0.00978029 0.00974419 1.38721e-05 0.00975524 1.71484e-07 273.178 
-0.33 -0.67 -0.194886 0.603173 0.0097699 0.00972079 1.17451e-06 0.00975414 1.71613e-07 272.942 
-0.33 -0.75 0.331845 0.102199 0.00973472 0.0097066 1.46803e-06 0.00972783 1.71552e-07 272.303 
-0.31 -0.73 -0.250845 0.940666 0.00976217 0.00973188 -7.19725e-06 0.00974971 1.71621e-07 272.804 
-0.29 -0.73 -0.0618681 1.05324 0.00975284 0.00969239 1.36877e-06 0.00972826 1.71211e-07 272.856 
-0.33 -0.71 -0.498004 0.10666 0.00976492 0.00972237 3.66806e-06 0.00974991 1.71616e-07 272.817 
-0.27 -0.73 -0.154043 0.639455 0.00975766 0.00971416 1.1911e-05 0.00974812 1.71265e-07 273.326 
-0.31 -0.71 -0.27736 0.572675 0.00974686 0.00972748 9.66903e-06 0.0097574 1.71841e-07 272.67 
-0.29 -0.71 -0.0331042 0.893145 0.00973821 0.00968196 6.6203e-06 0.00972796 1.71171e-07 272.911 
-0.33 -0.69 -0.193487 0.324496 0.0097777 0.00971623 -2.62791e-06 0.00975302 1.71833e-07 272.56 
-0.27 -0.71 0.136169 0.708851 0.00974916 0.00970722 -2.60189e-07 0.00973124 1.71248e-07 272.88 
-0.31 -0.69 -0.548872 0.362401 0.00978377 0.00972369 1.62146e-05 0.00976191 1.72013e-07 272.523 
-0.29 -0.69 -0.424185 0.615582 0.00977705 0.00969829 1.05334e-05 0.00974645 1.71616e-07 272.722 
-0.27 -0.69 -0.124806 0.756895 0.00977448 0.00970847 1.81717e-06 0.00975417 1.71363e-07 273.34 
-0.31 -0.67 -0.263152 0.643867 0.0097646 0.00970232 5.8941e-06 0.00973675 1.7147e-07 272.682 
-0.29 -0.67 -0.445643 0.556601 0.00977653 0.00971829 1.20798e-05 0.00975181 1.71417e-07 273.188 
-0.41 -0.83 0.0504817 0.5526 0.00976027 0.0097309 9.09552e-07 0.0097499 1.71651e-07 272.762 
-0.39 -0.83 -0.0713907 0.41402 0.00975411 0.00972112 1.17041e-05 0.00973355 1.71438e-07 272.643 
-0.37 -0.83 -0.186088 0.0778232 0.0097432 0.00971744 8.42831e-06 0.00973957 1.71543e-07 272.645 
-0.35 -0.83 -0.184494 0.0410124 0.00975011 0.00972218 1.3893e-05 0.00973525 1.71367e-07 272.804 
-0.33 -0.83 -0.060673 0.167433 0.00975245 0.00970379 1.1841e-05 0.00972338 1.70961e-07 273.118 
-0.31 -0.83 0.0345944 -0.429912 0.0097472 0.00969557 9.68531e-06 0.00972915 1.71307e-07 272.729 
-0.29 -0.83 -0.241231 0.167331 0.00976355 0.00972564 1.48059e-05 0.00976018 1.71439e-07 273.387 
-0.27 -0.83 -0.235556 0.38851 0.00977707 0.00973207 1.2579e-05 0.00976782 1.71469e-07 273.553 
-0.27 -0.67 -0.669716 0.553377 0.009756 0.00970009 1.70119e-05 0.00974359 1.71502e-07 272.822 
-0.25 -0.67 -0.408482 0.797227 0.00976843 0.00970765 2.47286e-06 0.00975198 1.71621e-07 272.869 
-0.25 -0.81 -0.245397 0.236818 0.00977663 0.00971988 1.21312e-05 0.00975436 1.71434e-07 273.232 
-0.25 -0.79 -0.554815 0.268087 0.00977153 0.00974315 1.56098e-05 0.00975865 1.71418e-07 273.378 
-0.35 -0.55 -0.299035 0.821136 0.00979548 0.00972468 4.49271e-06 0.00976079 1.71842e-07 272.764 
-0.39 -0.53 0.00996106 1.12622 0.00977715 0.00969809 -1.08938e-06 0.00974842 1.71405e-07 273.112 
-0.37 -0.57 -0.294624 0.792519 0.00977057 0.00971335 5.64263e-06 0.00974464 1.71382e-07 273.044 
-0.41 -0.55 0.0532654 1.01214 0.00974487 0.0097064 -1.2531e-05 0.00973376 1.71497e-07 272.554 
-0.45 -0.53 0.189046 0.448432 0.00977125 0.00969662 -4.70609e-06 0.00972178 1.71147e-07 272.777 
-0.35 -0.57 -0.0288232 0.813096 0.00976547 0.00971175 2.65796e-05 0.00974218 1.71436e-07 272.888 
-0.39 -0.55 -0.356925 0.903063 0.00975981 0.00970134 1.35052e-05 0.00974792 1.71489e-07 272.964 
-0.43 -0.53 -0.229564 0.318523 0.00977964 0.00970188 3.86381e-06 0.00973863 1.7157e-07 272.575 
-0.47 -0.51 -0.288966 0.459121 0.00976845 0.00968998 -3.89e-06 0.0097226 1.71347e-07 272.481 
-0.37 -0.55 -0.239541 0.665857 0.00975111 0.00968773 -2.48295e-06 0.00973031 1.71148e-07 273.014 
-0.41 -0.53 -0.28156 0.729049 0.00978151 0.00970562 2.38445e-06 0.00974214 1.71564e-07 272.684 
-0.45 -0.51 -0.530735 0.77552 0.00977569 0.00969028 3.31924e-06 0.00973269 1.7154e-07 272.457 
-0.37 -0.53 -0.26976 0.926592 0.00977978 0.00971279 -2.18558e-06 0.00975194 1.71713e-07 272.721 
-0.41 -0.51 -0.640667 0.607091 0.00976797 0.00970333 2.65013e-06 0.0097359 1.71456e-07 272.681 
-0.35 -0.53 -0.564821 0.851223 0.00975432 0.0096978 -3.86621e-06 0.00972355 1.71416e-07 272.399 
-0.39 -0.51 -0.574884 0.907782 0.00977149 0.00969254 -1.76743e-06 0.00973177 1.71463e-07 272.553 
-0.37 -0.51 -0.568456 1.12364 0.00977697 0.00971239 1.10567e-05 0.00974523 1.71682e-07 272.582 
-0.35 -0.51 -0.51426 0.867793 0.00977023 0.00969582 1.31815e-05 0.00972853 1.71344e-07 272.653 
-0.49 -0.65 0.0781642 0.362901 0.00976543 0.00971477 1.76496e-05 0.00974303 1.71349e-07 273.051 
-0.47 -0.65 -0.217457 0.331906 0.00977205 0.00972408 1.52519e-05 0.00975307 1.71772e-07 272.659 
-0.45 -0.65 -0.100328 0.323472 0.00976313 0.00972948 4.8449e-06 0.00975513 1.72014e-07 272.332 
-0.49 -0.63 -0.10175 0.396386 0.00975612 0.00971113 1.02484e-05 0.00974557 1.71876e-07 272.284 
-0.43 -0.65 0.121248 0.78315 0.00975383 0.00970843 7.63591e-06 0.00973898 1.71375e-07 272.896 
-0.47 -0.63 -0.136635 0.518932 0.00976898 0.00972894 5.49228e-08 0.00976049 1.72054e-07 272.419 
-0.41 -0.65 0.0144276 0.27287 0.00976439 0.00970892 8.98695e-06 0.00973542 1.71402e-07 272.752 
-0.45 -0.63 -0.462613 0.421131 0.00978147 0.00972692 1.56431e-05 0.00976424 1.7206e-07 272.515 
-0.49 -0.61 -0.0482928 0.591334 0.00976069 0.00970826 -1.28285e-05 0.00974418 1.71745e-07 272.452 
-0.39 -0.65 0.00163316 0.124595 0.00975465 0.00971626 1.2264e-05 0.00973787 1.71361e-07 272.888 
-0.43 -0.63 -0.514494 0.484854 0.00978071 0.00971745 3.89845e-06 0.00975308 1.71497e-07 273.096 
-0.47 -0.61 -0.330925 0.584825 0.00976251 0.00972979 -1.55731e-08 0.00976072 1.71925e-07 272.63 
-0.37 -0.65 -0.544493 0.35104 0.00975551 0.00969044 -1.26254e-06 0.00972073 1.71083e-07 272.848 
-0.41 -0.63 -0.489884 0.372113 0.00977753 0.00969831 1.35319e-05 0.00974004 1.71306e-07 273.035 
-0.45 -0.61 -0.157725 0.681219 0.00977059 0.00972665 -1.12324e-05 0.00976253 1.71742e-07 272.97 
-0.49 -0.59 -0.0361548 0.58914 0.00976158 0.00969566 -1.77255e-05 0.00974246 1.71492e-07 272.807 
-0.35 -0.65 -0.611729 0.407666 0.00976348 0.00974663 1.09256e-05 0.00974454 1.71349e-07 273.093 
-0.39 -0.63 -0.485821 0.33486 0.00978875 0.00972495 1.68681e-05 0.00974687 1.71522e-07 272.882 
-0.43 -0.61 -0.0719592 0.60308 0.00978017 0.00970892 1.15325e-05 0.00974967 1.71318e-07 273.287 
-0.47 -0.59 0.103649 0.74851 0.00977591 0.00972855 -1.431e-05 0.00976513 1.71763e-07 273.01 
-0.37 -0.63 -0.524422 0.627402 0.00976574 0.00969906 8.67274e-06 0.00973 1.7133e-07 272.715 
-0.41 -0.61 -0.269829 0.322274 0.00977804 0.0097089 1.10164e-05 0.00973952 1.71204e-07 273.183 
-0.45 -0.59 -0.0237665 0.171363 0.00977949 0.00971823 -4.46604e-06 0.00976625 1.71638e-07 273.241 
-0.49 -0.57 -0.0179688 0.550605 0.00978476 0.00970868 -2.29099e-05 0.00974641 1.71424e-07 273.025 
-0.35 -0.63 -0.579123 0.385384 0.00975726 0.00971984 1.00841e-05 0.00972995 1.71282e-07 272.791 
-0.39 -0.61 -0.26874 0.29049 0.00978737 0.00970788 1.31806e-05 0.00974332 1.71414e-07 272.955 
-0.43 -0.59 0.210059 0.602654 0.00976916 0.00969934 6.82036e-06 0.00973996 1.7158e-07 272.596 
-0.47 -0.57 -0.0940232 0.687315 0.00977015 0.00971794 -1.12022e-05 0.00974371 1.71429e-07 272.942 
-0.37 -0.61 -0.32529 0.625138 0.00979282 0.00971695 1.92321e-05 0.00975412 1.71423e-07 273.244 
-0.41 -0.59 0.465196 0.368483 0.00977333 0.00970457 2.67754e-06 0.00974278 1.71129e-07 273.395 
-0.45 -0.57 0.112834 0.11532 0.00975801 0.00969622 4.54103e-07 0.00973062 1.71345e-07 272.709 
-0.49 -0.55 -0.0639338 0.634347 0.00977015 0.00970643 -9.97777e-06 0.00974073 1.71553e-07 272.661 
-0.35 -0.61 -0.265217 0.4968 0.00978541 0.00971136 9.37169e-06 0.00974087 1.71285e-07 273.092 
-0.39 -0.59 0.207802 0.587246 0.00977738 0.00967805 5.3384e-06 0.00972893 1.71102e-07 273.048 
-0.43 -0.57 0.232863 0.384823 0.00976073 0.0096887 2.78866e-08 0.00973195 1.71175e-07 273.018 
-0.47 -0.55 0.0528587 0.62088 0.00977482 0.00969594 -5.24025e-06 0.00973187 1.71647e-07 272.264 
-0.33 -0.61 -0.610752 0.523669 0.00978386 0.00970747 2.16859e-05 0.00975331 1.71442e-07 273.19 
-0.37 -0.59 0.00338484 0.519065 0.00978554 0.00974648 2.23217e-05 0.00976685 1.71692e-07 273.171 
-0.41 -0.57 -0.059976 0.61847 0.00977938 0.00971761 1.54745e-05 0.00974756 1.71499e-07 272.938 
-0.45 -0.55 -0.0228405 0.0239321 0.00976454 0.00969311 2.52001e-06 0.00971888 1.71363e-07 272.352 
-0.49 -0.53 0.152491 0.59727 0.0097701 0.00969822 2.50611e-06 0.00973271 1.71364e-07 272.738 
-0.35 -0.59 -0.445906 0.870227 0.00978319 0.00969914 1.45087e-05 0.00973719 1.71619e-07 272.458 
-0.39 -0.57 -0.293752 0.793883 0.00976676 0.00968635 -2.60276e-06 0.00973216 1.71191e-07 272.998 
-0.43 -0.55 -0.0798378 0.208778 0.00976048 0.00969832 8.01191e-06 0.00973795 1.71564e-07 272.566 
-0.47 -0.53 0.188008 0.377504 0.00975809 0.00969081 1.56917e-06 0.00971957 1.71164e-07 272.688 
-0.29 -0.57 -0.48279 0.461807 0.00976567 0.00969621 2.34236e-05 0.0097339 1.71303e-07 272.867 
-0.33 -0.55 -0.553308 0.98418 0.00980136 0.0097242 5.55286e-06 0.00975456 1.71668e-07 272.866 
-0.29 -0.61 -0.411439 0.677958 0.00977125 0.00971298 2.64105e-06 0.00974213 1.71568e-07 272.676 
-0.33 -0.59 -0.28128 0.950767 0.00977723 0.00971279 1.98466e-05 0.0097515 1.71443e-07 273.138 
-0.27 -0.61 -0.540932 0.593037 0.00978318 0.00969645 1.99691e-05 0.00974848 1.71637e-07 272.745 
-0.31 -0.59 -0.675035 0.821618 0.00978335 0.00974281 1.28784e-05 0.00975915 1.71673e-07 272.986 
-0.29 -0.59 -0.405844 0.169511 0.00978926 0.00970153 1.29298e-05 0.00974494 1.71417e-07 272.996 
-0.33 -0.57 -0.138474 0.907089 0.00976977 0.00972318 3.65799e-06 0.0097385 1.71419e-07 272.812 
-0.27 -0.59 -0.188299 0.853048 0.00977861 0.00969206 2.2268e-05 0.00973664 1.71174e-07 273.151 
-0.31 -0.57 -0.192574 0.790466 0.00977299 0.00972957 5.81386e-06 0.00975324 1.71615e-07 272.913 
-0.27 -0.57 -0.673403 0.706927 0.00976334 0.00969036 3.07971e-05 0.00974183 1.71495e-07 272.785 
-0.31 -0.55 -0.180598 0.989161 0.00978524 0.00970562 2.80705e-05 0.00974964 1.7133e-07 273.267 
-0.29 -0.55 -0.498308 0.611828 0.0097715 0.00969682 3.2813e-05 0.00973175 1.71147e-07 273.056 
-0.33 -0.53 -0.347624 1.08554 0.00975342 0.009709 1.74761e-05 0.00972058 1.71079e-07 272.851 
-0.27 -0.55 -0.468878 0.513139 0.00976128 0.00968307 1.88246e-05 0.00971813 1.71375e-07 272.311 
-0.31 -0.53 -0.400272 0.854067 0.00976026 0.0096971 2.5617e-05 0.00973344 1.71172e-07 273.063 
-0.29 -0.53 -0.40938 0.730428 0.00979159 0.00969853 2.96725e-05 0.00974998 1.71367e-07 273.217 
-0.33 -0.51 -0.621301 0.913785 0.00976548 0.00969656 1.32032e-05 0.00972977 1.71142e-07 273.009 
-0.27 -0.53 -0.553548 0.671871 0.00979291 0.00969002 2.78262e-05 0.00974327 1.71321e-07 273.102 
-0.31 -0.51 -0.285939 0.695522 0.00976208 0.0096935 9.13371e-06 0.00972264 1.71163e-07 272.775 
-0.29 -0.51 -0.224849 0.847115 0.00975295 0.00968671 1.98069e-05 0.00972645 1.71167e-07 272.876 
-0.27 -0.51 -0.313632 1.02179 0.00976922 0.00969512 3.49402e-05 0.00974005 1.71214e-07 273.181 
-0.33 -0.65 -0.509598 0.450523 0.00976787 0.00972062 1.81432e-05 0.00975 1.7132e-07 273.293 
-0.31 -0.65 -0.449942 0.792787 0.00976054 0.00971015 1.64004e-05 0.00974929 1.71607e-07 272.815 
-0.29 -0.65 -0.408288 0.683313 0.00974484 0.00969827 1.80979e-05 0.0097336 1.71373e-07 272.748 
-0.33 -0.63 -0.473671 0.690601 0.009758 0.00972634 2.15731e-05 0.00975223 1.71715e-07 272.726 
-0.27 -0.65 -0.467558 0.678516 0.00976655 0.00971805 1.15647e-05 0.00975222 1.71574e-07 272.95 
-0.31 -0.63 -0.603396 0.54738 0.00974505 0.00969763 1.40413e-05 0.009738 1.71292e-07 273 
-0.25 -0.65 -0.723444 0.367915 0.00975522 0.0097046 7.51783e-06 0.00973902 1.71676e-07 272.418 
-0.29 -0.63 -0.830734 0.537262 0.00976859 0.00971968 1.04995e-05 0.00974668 1.71538e-07 272.852 
-0.27 -0.63 -0.646462 0.648267 0.00975125 0.0097104 7.38781e-06 0.00974517 1.71687e-07 272.572 
-0.31 -0.61 -0.676445 0.756423 0.00978974 0.00972857 1.84533e-05 0.00975928 1.71609e-07 273.092 
-0.49 -0.67 0.120425 0.474441 0.0097829 0.00971773 5.22015e-06 0.00975261 1.71379e-07 273.27 
-0.47 -0.67 0.117394 -0.187349 0.00977025 0.00971887 -2.76765e-07 0.00974134 1.71623e-07 272.567 
-0.45 -0.67 0.122137 0.814756 0.00976139 0.00972962 9.70163e-06 0.00974985 1.7179e-07 272.539 
-0.43 -0.67 -0.115333 0.302696 0.00977724 0.00972207 1.1429e-05 0.00974697 1.717e-07 272.603 