ITEM: TIMESTEP
897000
ITEM: NUMBER OF CELLS
5000
ITEM: BOX BOUNDS ss ss pp
-0.5 0.5
-1 1
-0.5 0.5
ITEM: CELLS xc yc f_U[*] f_V[*] f_Tau[1] f_Tau[2] f_Tau[3] f_Press[*] f_Mrho[*] f_Ttra[*] 
-0.49 -0.99 -0.0483114 0.0961721 0.00975941 0.00973192 1.25292e-05 0.00975253 1.71738e-07 272.698 
-0.47 -0.99 -0.128382 -0.104607 0.00974371 0.00971568 6.35568e-07 0.00973413 1.71444e-07 272.65 
-0.45 -0.99 -0.234804 0.0908782 0.00974142 0.00972691 5.52254e-06 0.00974029 1.71427e-07 272.849 
-0.49 -0.97 -0.0960961 0.146827 0.00973734 0.00972374 1.15183e-05 0.00973345 1.71283e-07 272.887 
-0.43 -0.99 -0.354685 0.0163533 0.00973497 0.00973239 1.63256e-06 0.0097407 1.7124e-07 273.158 
-0.47 -0.97 -0.1052 0.0285688 0.00974474 0.0097212 1.17454e-05 0.00973916 1.71312e-07 273.001 
-0.41 -0.99 -0.127449 -0.127981 0.00972882 0.0097292 6.38078e-06 0.00973151 1.71309e-07 272.79 
-0.45 -0.97 -0.0420731 0.112214 0.00974169 0.00972894 1.29609e-06 0.00974029 1.71362e-07 272.953 
-0.49 -0.95 0.0784421 0.117102 0.00973058 0.00970644 -4.52446e-06 0.00972385 1.711e-07 272.909 
-0.39 -0.99 -0.189145 0.0908969 0.00972751 0.00970978 -3.69814e-06 0.00971178 1.70743e-07 273.14 
-0.43 -0.97 0.155065 -0.0463859 0.00975007 0.00973541 -1.46303e-06 0.00974266 1.71389e-07 272.976 
-0.47 -0.95 0.0529369 0.133011 0.00974508 0.00972588 1.96884e-06 0.00973347 1.71241e-07 272.954 
-0.37 -0.99 -0.228947 0.0221016 0.0097279 0.00972004 7.63592e-06 0.00972209 1.71063e-07 272.919 
-0.41 -0.97 -0.0388018 -0.181963 0.00973986 0.00972651 7.192e-06 0.00973129 1.71103e-07 273.114 
-0.45 -0.95 0.128211 -0.213564 0.00974828 0.00974054 7.67406e-06 0.00974501 1.71528e-07 272.822 
-0.49 -0.93 -0.0614527 0.106418 0.00976379 0.00971849 2.56244e-06 0.00974018 1.71351e-07 272.967 
-0.35 -0.99 -0.128058 -0.167737 0.00971034 0.00968402 1.46912e-05 0.00969562 1.70684e-07 272.78 
-0.39 -0.97 0.219104 0.0260373 0.00973134 0.00971255 1.60506e-05 0.00972484 1.71082e-07 272.966 
-0.43 -0.95 0.147061 -0.0153042 0.00974702 0.00972243 8.88436e-06 0.00973419 1.71369e-07 272.771 
-0.47 -0.93 0.149124 -0.0228945 0.00975788 0.00971855 -1.73109e-06 0.00973881 1.71271e-07 273.056 
-0.33 -0.99 -0.0567299 -0.00411422 0.00972534 0.0097254 2.42878e-06 0.00971484 1.71035e-07 272.76 
-0.37 -0.97 0.161275 -0.0293683 0.00972836 0.00971032 4.47098e-06 0.00971974 1.71071e-07 272.841 
-0.41 -0.95 0.0618133 -0.173292 0.0097434 0.00972713 6.01927e-06 0.00973453 1.71362e-07 272.791 
-0.45 -0.93 0.0711492 -0.00143834 0.0097549 0.00973266 2.18721e-06 0.00973909 1.71478e-07 272.735 
-0.49 -0.91 0.187824 -0.0251144 0.00977671 0.00972763 1.1593e-05 0.00975025 1.71332e-07 273.281 
-0.35 -0.97 0.00154936 -0.0615592 0.00973508 0.00969894 6.64437e-06 0.00971331 1.70932e-07 272.882 
-0.39 -0.95 0.0142869 -0.0491446 0.00973817 0.00971364 6.14167e-06 0.00972272 1.7126e-07 272.623 
-0.43 -0.93 0.0177952 -0.0581283 0.00974833 0.00971451 6.22119e-06 0.0097236 1.71077e-07 272.939 
-0.47 -0.91 -0.125214 0.0200523 0.00976756 0.00971524 3.45607e-06 0.00974094 1.71407e-07 272.9 
-0.33 -0.97 -0.11898 -0.110797 0.00973543 0.00972014 3.3441e-07 0.00973077 1.71353e-07 272.7 
-0.37 -0.95 -0.0734509 0.178504 0.00974689 0.0097142 2.0451e-05 0.00973538 1.71234e-07 273.019 
-0.41 -0.93 0.0541903 -0.143609 0.00975271 0.00973333 2.14556e-05 0.00973114 1.71325e-07 272.756 
-0.45 -0.91 0.0636637 -0.0107203 0.00976427 0.00972475 1.31256e-05 0.0097456 1.71414e-07 273.018 
-0.49 -0.89 -0.126267 0.064115 0.00977394 0.00972813 7.28271e-06 0.00975003 1.71501e-07 273.005 
-0.35 -0.95 -0.108722 -0.0761867 0.0097501 0.00970708 -3.29339e-06 0.00973038 1.71367e-07 272.667 
-0.39 -0.93 -0.149286 0.00216153 0.00974198 0.00971286 1.11427e-05 0.00972358 1.71299e-07 272.584 
-0.43 -0.91 -0.147575 -0.11451 0.00974641 0.00972003 1.58202e-05 0.00972864 1.71021e-07 273.17 
-0.47 -0.89 0.0656951 0.0325691 0.00976479 0.00971931 1.48581e-05 0.00974441 1.71596e-07 272.696 
-0.37 -0.93 0.0350991 0.105122 0.00974509 0.00971656 -4.63851e-06 0.00973291 1.71274e-07 272.886 
-0.41 -0.91 -0.191677 0.0674871 0.00975504 0.00971602 9.16084e-06 0.00972939 1.71317e-07 272.719 
-0.45 -0.89 -0.185223 0.00435532 0.00975832 0.00971444 8.77287e-06 0.00974095 1.71346e-07 272.998 
-0.49 -0.87 -0.0542977 0.124681 0.00973738 0.00971098 3.05115e-06 0.0097216 1.71095e-07 272.854 
-0.35 -0.93 -0.302895 0.137291 0.00974993 0.00971726 5.11333e-07 0.00972467 1.71352e-07 272.531 
-0.39 -0.91 -0.136727 -0.07875 0.00977282 0.00973254 1.1891e-05 0.00975572 1.7163e-07 272.958 
-0.43 -0.89 -0.151203 0.0876294 0.0097742 0.00973202 1.29384e-05 0.00975258 1.71383e-07 273.263 
-0.47 -0.87 0.0745726 0.05485 0.00974726 0.00972104 6.15603e-06 0.00973501 1.71335e-07 272.848 
-0.37 -0.91 -0.180892 0.245847 0.00975762 0.00972475 -1.9306e-07 0.00974049 1.71577e-07 272.617 
-0.41 -0.89 -0.173726 0.0247234 0.00976986 0.00971605 3.07373e-06 0.00974768 1.71575e-07 272.821 
-0.45 -0.87 -0.130884 0.110124 0.00976111 0.00970787 8.64542e-06 0.0097445 1.71448e-07 272.934 
-0.49 -0.85 0.0687889 0.124788 0.00974016 0.00971073 -3.21983e-06 0.0097178 1.71117e-07 272.712 
-0.35 -0.91 -0.0435705 0.196573 0.00975192 0.00971453 1.82488e-06 0.00972669 1.71238e-07 272.769 
-0.39 -0.89 -0.231567 0.0621487 0.00976739 0.00972354 8.27606e-06 0.00974245 1.71401e-07 272.951 
-0.43 -0.87 -0.125792 0.114356 0.00975351 0.00974172 9.63753e-06 0.00975248 1.7161e-07 272.9 
-0.47 -0.85 -0.066366 0.200515 0.00975044 0.00971876 4.84265e-06 0.00973794 1.71352e-07 272.902 
-0.33 -0.91 -0.0716344 -0.0112755 0.00975211 0.00970596 5.37048e-06 0.00972983 1.71325e-07 272.719 
-0.37 -0.89 -0.362451 0.089507 0.00977716 0.009741 1.84188e-05 0.00975727 1.71384e-07 273.394 
-0.41 -0.87 -0.254743 0.132945 0.00975804 0.00972535 9.43922e-06 0.00974179 1.71571e-07 272.662 
-0.45 -0.85 -0.0711043 0.202213 0.00974766 0.00970663 7.85411e-06 0.00973081 1.71262e-07 272.846 
-0.35 -0.89 -0.267697 0.174413 0.00976456 0.00970292 9.12121e-06 0.00972433 1.71111e-07 272.905 
-0.39 -0.87 -0.206565 0.0333195 0.00976022 0.00971984 2.51071e-06 0.0097375 1.71568e-07 272.547 
-0.43 -0.85 -0.100597 0.0954115 0.00976579 0.00974082 -3.57375e-06 0.0097489 1.71619e-07 272.785 
-0.37 -0.87 -0.2766 0.140238 0.0097654 0.00973077 8.06718e-06 0.00974364 1.71445e-07 272.915 
-0.41 -0.85 -0.0584195 0.135319 0.00976455 0.00972495 7.17112e-06 0.00974609 1.71605e-07 272.728 
-0.35 -0.87 -0.193839 0.210289 0.00977634 0.00971736 6.53055e-06 0.00974332 1.71402e-07 272.974 
-0.39 -0.85 -0.229062 0.362668 0.00976676 0.00972891 -1.31829e-06 0.00974748 1.71594e-07 272.786 
-0.33 -0.87 -0.504255 -0.00877789 0.0097725 0.0097172 8.69736e-06 0.00974257 1.71455e-07 272.869 
-0.37 -0.85 -0.393826 -0.0861545 0.00976288 0.00971654 5.74945e-06 0.00974449 1.71421e-07 272.977 
-0.35 -0.85 -0.40192 0.247344 0.009761 0.00971702 9.40242e-06 0.00973849 1.71144e-07 273.25 
-0.33 -0.85 -0.479961 0.39921 0.00975787 0.00971779 1.21382e-05 0.00973273 1.71122e-07 273.123 
-0.31 -0.99 0.0403561 0.014813 0.00972134 0.00969781 9.95219e-06 0.00970403 1.71002e-07 272.51 
-0.29 -0.99 -0.244779 0.280234 0.00972382 0.0097059 5.0028e-06 0.00970968 1.7099e-07 272.688 
-0.27 -0.99 -0.267188 -0.230677 0.00974957 0.00972812 7.99328e-06 0.00973621 1.7119e-07 273.113 
-0.31 -0.97 -0.423911 0.0478133 0.00974639 0.00970732 -1.18291e-08 0.00973321 1.71332e-07 272.802 
-0.29 -0.97 -0.352459 0.255232 0.00975469 0.00971008 2.82425e-06 0.00974184 1.71556e-07 272.687 
-0.33 -0.95 -0.11664 0.216697 0.00974897 0.00971742 2.10074e-06 0.0097333 1.71332e-07 272.804 
-0.27 -0.97 -0.15103 -0.231932 0.00974003 0.00971693 3.95876e-06 0.0097354 1.71442e-07 272.688 
-0.31 -0.95 -0.234176 0.185101 0.00974075 0.00971083 4.30248e-06 0.00972911 1.71306e-07 272.729 
-0.29 -0.95 -0.109407 0.0567549 0.0097335 0.00969356 4.32159e-06 0.00971329 1.71213e-07 272.434 
-0.33 -0.93 -0.316613 0.227789 0.0097514 0.00970717 1.68817e-06 0.00972813 1.71273e-07 272.755 
-0.27 -0.95 -0.355465 -0.165144 0.00974255 0.00973719 2.40432e-06 0.00973434 1.71397e-07 272.73 
-0.31 -0.93 -0.155257 0.0640688 0.00975598 0.0097105 7.66612e-06 0.00973412 1.71557e-07 272.469 
-0.29 -0.93 -0.221726 0.0933784 0.00975972 0.00969579 4.97576e-06 0.00972709 1.71374e-07 272.564 
-0.27 -0.93 -0.123472 -0.0648104 0.00977539 0.00973566 -2.39895e-06 0.00975894 1.71652e-07 273.014 
-0.31 -0.91 -0.138064 0.296772 0.00975734 0.00970931 -1.30739e-06 0.00973808 1.71454e-07 272.744 
-0.29 -0.91 -0.239764 -0.0718163 0.00975939 0.00970586 -1.19757e-05 0.00972872 1.71317e-07 272.701 
-0.33 -0.89 -0.183671 -0.0327332 0.00976375 0.00971855 -6.87457e-07 0.00973299 1.71312e-07 272.828 
-0.27 -0.91 -0.0598297 -0.0802005 0.00975602 0.00971731 1.744e-06 0.00972792 1.7146e-07 272.45 
-0.31 -0.89 -0.141315 0.276954 0.00976931 0.00971013 -4.62278e-06 0.00974132 1.71607e-07 272.592 
-0.29 -0.89 -0.130504 -0.0990583 0.00976301 0.00970994 -1.4079e-06 0.00973756 1.71328e-07 272.93 
-0.27 -0.89 -0.249481 -0.00820818 0.00974428 0.00970307 9.73376e-06 0.00973156 1.71369e-07 272.696 
-0.31 -0.87 -0.432783 0.1257 0.00975057 0.00971104 6.33853e-06 0.0097283 1.71377e-07 272.594 
-0.29 -0.87 -0.250751 -0.052291 0.00973556 0.0096976 1.27238e-05 0.00972198 1.71221e-07 272.664 
-0.27 -0.87 -0.343884 0.264926 0.0097393 0.00971611 7.4526e-06 0.00972747 1.71321e-07 272.658 
-0.31 -0.85 -0.414045 -0.170175 0.0097562 0.00970714 2.15963e-05 0.00973104 1.71386e-07 272.655 
-0.29 -0.85 -0.284544 -0.00157988 0.0097499 0.0096982 1.7584e-05 0.00974029 1.7153e-07 272.686 
-0.27 -0.85 -0.444873 0.199078 0.0097479 0.00971681 4.31442e-06 0.00973635 1.71094e-07 273.269 
-0.25 -0.99 -0.218533 0.103265 0.00975313 0.00974056 6.15662e-06 0.00974802 1.71356e-07 273.179 
-0.25 -0.97 -0.132453 0.223509 0.00974499 0.00974123 -4.85809e-06 0.00974406 1.71606e-07 272.67 
-0.25 -0.95 -0.395101 0.117968 0.0097346 0.00973702 2.80318e-06 0.00973699 1.71398e-07 272.804 
-0.25 -0.93 -0.0721878 0.00839154 0.00976599 0.00973466 1.01316e-05 0.00975014 1.71613e-07 272.83 
-0.25 -0.91 -0.0925746 0.0446632 0.00975716 0.0097243 1.71812e-05 0.00974 1.71438e-07 272.824 
-0.25 -0.89 -0.488477 0.118611 0.00975183 0.00971885 1.08879e-05 0.00973256 1.71149e-07 273.076 
-0.25 -0.87 -0.430327 0.0443131 0.00972925 0.00970872 6.93291e-06 0.00972524 1.71024e-07 273.069 
-0.25 -0.85 -0.332099 0.339622 0.00975781 0.00971299 5.78823e-06 0.00973611 1.71212e-07 273.075 
-0.25 -0.83 -0.46863 0.151811 0.00976341 0.00970366 1.45962e-06 0.00974253 1.71141e-07 273.368 
-0.33 -0.81 -0.0297802 0.177662 0.00976247 0.00970402 8.99659e-06 0.00972773 1.71257e-07 272.768 
-0.31 -0.81 -0.27358 0.282745 0.00978651 0.00971589 8.25699e-06 0.00974702 1.71288e-07 273.259 
-0.29 -0.81 -0.313807 0.0908553 0.00977979 0.00971027 3.85444e-06 0.00974663 1.71331e-07 273.18 
-0.27 -0.81 -0.435106 0.147384 0.009776 0.0097207 7.39279e-06 0.00975517 1.71489e-07 273.167 
-0.31 -0.79 -0.212659 0.129859 0.00976154 0.00971146 2.83954e-06 0.00973074 1.71385e-07 272.648 
-0.29 -0.79 -0.352424 0.477251 0.0097575 0.0097062 7.32768e-06 0.00972406 1.71248e-07 272.679 
-0.33 -0.77 -0.422321 0.32119 0.00976486 0.00972348 1.35244e-05 0.00973801 1.71333e-07 272.936 
-0.27 -0.79 -0.551652 0.202366 0.00975245 0.0097105 8.46824e-06 0.00973046 1.7132e-07 272.745 
-0.31 -0.77 -0.348278 0.190561 0.0097497 0.00968965 9.58458e-06 0.00971603 1.7114e-07 272.626 
-0.29 -0.77 -0.330951 0.475806 0.00975963 0.00971664 1.18253e-05 0.00973527 1.71453e-07 272.667 
-0.27 -0.77 -0.443625 0.208949 0.00975942 0.00970134 9.67486e-06 0.00973209 1.71405e-07 272.655 
-0.31 -0.75 -0.100493 0.482636 0.0097537 0.00970749 7.36537e-06 0.00974176 1.71525e-07 272.735 
-0.29 -0.75 -0.490144 0.554016 0.00974925 0.0097079 8.01207e-06 0.00973444 1.7139e-07 272.744 
-0.27 -0.75 -0.607233 0.582849 0.00975223 0.00970536 1.26709e-05 0.00972512 1.71155e-07 272.858 
-0.49 -0.83 -0.102813 0.133018 0.009757 0.00971609 3.582e-06 0.00973739 1.71517e-07 272.625 
-0.47 -0.83 -0.0140264 0.21749 0.00975383 0.00970858 -8.35566e-08 0.00973337 1.71464e-07 272.596 
-0.45 -0.83 -0.114056 0.228438 0.00975637 0.00972543 -5.98479e-06 0.00974471 1.7146e-07 272.921 
-0.49 -0.81 0.0252803 0.0430714 0.00975395 0.00971841 -5.3389e-06 0.00974178 1.71429e-07 272.888 
-0.43 -0.83 -0.145182 0.116446 0.00974236 0.00971759 5.73107e-06 0.00972627 1.71335e-07 272.604 
-0.47 -0.81 -0.0459008 0.340412 0.00975609 0.00971454 -4.32279e-06 0.00974587 1.71523e-07 272.852 
-0.45 -0.81 -0.0574061 0.251924 0.00975704 0.00971567 3.78145e-06 0.00973811 1.7161e-07 272.497 
-0.49 -0.79 -0.116798 0.311977 0.00975301 0.00971855 6.72668e-06 0.00973785 1.71412e-07 272.804 
-0.43 -0.81 -0.20543 0.293511 0.00976454 0.00972149 -1.75159e-06 0.00974236 1.71765e-07 272.37 
-0.47 -0.79 -0.0485512 0.0993782 0.0097409 0.00970898 -3.2621e-06 0.00972943 1.71372e-07 272.633 
-0.41 -0.81 -0.444394 0.326215 0.00975199 0.00972366 9.6491e-06 0.0097417 1.71525e-07 272.733 
-0.45 -0.79 -0.0551398 0.443685 0.00974137 0.00972348 -6.71661e-06 0.00973645 1.71399e-07 272.787 
-0.49 -0.77 0.173772 0.194651 0.00973823 0.00971462 3.69894e-06 0.0097253 1.71128e-07 272.905 
-0.39 -0.81 -0.247219 0.186039 0.00974506 0.00972112 1.24147e-05 0.00974707 1.71638e-07 272.703 
-0.43 -0.79 -0.334131 0.332436 0.00974999 0.00971567 -1.53703e-06 0.00973767 1.71452e-07 272.736 
-0.47 -0.77 -0.149093 0.334927 0.0097506 0.00971831 -8.62508e-08 0.00973573 1.71304e-07 272.917 
-0.37 -0.81 0.153878 0.245286 0.00975007 0.00971431 4.52551e-06 0.0097375 1.71622e-07 272.461 
-0.41 -0.79 -0.354848 0.405237 0.00976063 0.00972349 3.22229e-06 0.00974899 1.71798e-07 272.502 
-0.45 -0.77 -0.374728 0.630267 0.00975253 0.00972558 -3.3001e-06 0.00973916 1.71482e-07 272.73 
-0.35 -0.81 0.122187 0.134363 0.00974385 0.0097144 3.53198e-06 0.00973461 1.71309e-07 272.878 
-0.39 -0.79 -0.207024 -0.121375 0.00977077 0.00971756 3.37022e-06 0.00975047 1.71729e-07 272.654 
-0.43 -0.77 -0.321659 0.466474 0.00973686 0.00970917 -3.81556e-06 0.00972316 1.71292e-07 272.584 
-0.37 -0.79 -0.342859 0.223085 0.00977537 0.00971623 7.92209e-06 0.00974785 1.71566e-07 272.839 
-0.41 -0.77 -0.375816 0.0285921 0.00973776 0.00972028 -9.67312e-07 0.00973523 1.7159e-07 272.449 
-0.35 -0.79 -0.286178 0.133416 0.00977273 0.00971348 1.02097e-05 0.00974253 1.71698e-07 272.481 
-0.39 -0.77 -0.0373583 0.0335449 0.00973683 0.00971599 -1.13539e-06 0.00973907 1.71523e-07 272.663 
-0.43 -0.75 0.136196 0.263259 0.00976506 0.00971468 -6.59582e-06 0.00973909 1.7141e-07 272.843 
-0.33 -0.79 -0.27126 0.3826 0.00976319 0.00971132 -3.55165e-06 0.00972646 1.71511e-07 272.328 
-0.37 -0.77 0.0030417 0.191224 0.00974984 0.0097122 -5.1576e-06 0.00973496 1.71484e-07 272.61 
-0.41 -0.75 0.122498 0.301909 0.00976528 0.00971221 2.35048e-06 0.00975136 1.71724e-07 272.688 
-0.35 -0.77 -0.251384 0.487357 0.00976671 0.00971593 2.3371e-06 0.00974521 1.71376e-07 273.068 
-0.39 -0.75 -0.258029 0.0690836 0.00976808 0.00972039 -6.28199e-08 0.00974691 1.71512e-07 272.9 
-0.49 -0.75 -0.1566 0.177759 0.00974225 0.00972434 -3.56268e-06 0.00973832 1.71042e-07 273.409 
-0.47 -0.75 -0.110269 0.422981 0.00975094 0.00972717 -1.09534e-05 0.00973234 1.71178e-07 273.023 
-0.45 -0.75 -0.00842553 0.661225 0.00975528 0.0097114 -7.2613e-06 0.0097261 1.71325e-07 272.614 
-0.49 -0.73 -0.0444228 0.38025 0.00978567 0.00972683 2.04229e-06 0.00975863 1.7132e-07 273.533 
-0.47 -0.73 -0.265089 0.371691 0.00976907 0.00973671 6.89332e-07 0.00975113 1.71309e-07 273.342 
-0.45 -0.73 -0.164148 0.340079 0.00976268 0.00970782 -1.29569e-05 0.00973759 1.7152e-07 272.627 
-0.49 -0.71 -0.0210778 0.455359 0.00978271 0.00972468 3.61988e-06 0.00975511 1.71591e-07 273.003 
-0.43 -0.73 0.0319816 0.408917 0.00975708 0.00971167 -5.41673e-06 0.00973695 1.71471e-07 272.686 
-0.47 -0.71 -0.0589789 0.549883 0.00978845 0.00973771 3.13988e-06 0.00976289 1.71723e-07 273.011 
-0.37 -0.75 -0.363536 0.137232 0.00974246 0.00971157 4.25457e-06 0.00972781 1.71405e-07 272.535 
-0.41 -0.73 0.0263056 0.302097 0.00975883 0.00970284 -8.43448e-06 0.00973936 1.71542e-07 272.64 
-0.45 -0.71 0.218889 0.00382824 0.00977365 0.00971959 1.14329e-06 0.0097465 1.71543e-07 272.839 
-0.49 -0.69 -0.0435665 0.433512 0.00977805 0.00971905 -1.22463e-05 0.00975259 1.71608e-07 272.907 
-0.35 -0.75 0.00328669 0.359927 0.00973563 0.00971081 3.72042e-06 0.0097313 1.7141e-07 272.625 
-0.39 -0.73 -0.00254139 0.174579 0.00975856 0.00970944 1.32048e-05 0.0097384 1.71323e-07 272.962 
-0.43 -0.71 -0.0457497 0.350766 0.00976395 0.00971283 -7.24316e-07 0.00974428 1.71614e-07 272.663 
-0.47 -0.69 0.298175 0.347127 0.0097775 0.00972565 5.98931e-06 0.00975798 1.7158e-07 273.101 
-0.37 -0.73 0.000929544 0.209444 0.00976702 0.00972034 1.05425e-05 0.00974905 1.71679e-07 272.694 
-0.41 -0.71 0.180526 0.457355 0.0097606 0.0096852 -2.3299e-06 0.00973034 1.71639e-07 272.234 
-0.45 -0.69 -0.0895708 0.311903 0.00979582 0.0097258 9.6163e-06 0.00976348 1.71886e-07 272.769 
-0.35 -0.73 -0.372292 0.304404 0.00975926 0.00971243 5.05018e-06 0.00974718 1.71531e-07 272.877 
-0.39 -0.71 0.0465758 0.194644 0.00976361 0.00971089 -3.55034e-07 0.00974228 1.71593e-07 272.642 
-0.43 -0.69 -0.249236 0.451385 0.00979128 0.00971712 8.14994e-06 0.009761 1.72046e-07 272.445 
-0.33 -0.73 -0.439762 0.24208 0.00975746 0.00969754 1.14127e-05 0.0097361 1.71585e-07 272.481 
-0.37 -0.71 0.0799441 0.216657 0.00975806 0.00971665 1.62095e-05 0.00974782 1.71724e-07 272.588 
-0.41 -0.69 -0.232806 0.18449 0.00977694 0.00969564 1.20104e-06 0.00973837 1.71706e-07 272.353 
-0.35 -0.71 -0.167585 0.651705 0.00975614 0.00970912 7.63528e-07 0.00975543 1.7179e-07 272.696 
-0.39 -0.69 -0.116091 0.238655 0.00976265 0.00969769 9.60212e-06 0.00973206 1.7156e-07 272.407 
-0.37 -0.69 -0.172689 0.422336 0.00977064 0.00971154 7.48023e-06 0.00974738 1.71607e-07 272.762 
-0.35 -0.69 -0.139664 0.699052 0.0097693 0.00971451 1.45149e-05 0.00974378 1.71523e-07 272.794 
-0.35 -0.67 -0.271032 0.700808 0.00977871 0.00973102 1.20664e-05 0.00975213 1.71585e-07 272.929 
-0.33 -0.67 -0.274529 0.757241 0.00976011 0.00970277 8.28784e-07 0.00974532 1.7166e-07 272.62 
-0.33 -0.75 0.171428 0.276771 0.00973845 0.00970577 7.37152e-06 0.00973096 1.71422e-07 272.596 
-0.31 -0.73 -0.359016 0.735669 0.00975584 0.00971837 3.66869e-06 0.00974249 1.71546e-07 272.722 
-0.29 -0.73 -0.354429 0.72556 0.00976052 0.00969567 4.61548e-06 0.00973407 1.7131e-07 272.861 
-0.33 -0.71 -0.452781 0.17853 0.00975634 0.00970305 8.84957e-06 0.00974232 1.71657e-07 272.54 
-0.27 -0.73 -0.478673 0.578753 0.00976391 0.00971513 7.31121e-06 0.00974447 1.71349e-07 273.091 
-0.31 -0.71 -0.361346 0.644617 0.00975698 0.00972076 7.26605e-06 0.00974678 1.71668e-07 272.648 
-0.29 -0.71 -0.269008 0.714011 0.00975029 0.00968924 8.71827e-06 0.00972743 1.71183e-07 272.877 
-0.33 -0.69 -0.233148 0.487363 0.00977769 0.00970218 -8.94881e-06 0.00975 1.71838e-07 272.468 
-0.27 -0.71 -0.213645 0.55028 0.00975107 0.00970937 2.73564e-06 0.00973117 1.71226e-07 272.914 
-0.31 -0.69 -0.546879 0.488773 0.00978111 0.00971378 9.94512e-06 0.00975817 1.7188e-07 272.63 
-0.29 -0.69 -0.425716 0.572041 0.00977496 0.00969981 1.31409e-05 0.00974236 1.71557e-07 272.701 
-0.27 -0.69 -0.257802 0.686658 0.00977894 0.00971323 3.45974e-06 0.00974891 1.71318e-07 273.265 
-0.31 -0.67 -0.257032 0.684414 0.0097539 0.00969563 1.39415e-06 0.00972888 1.71447e-07 272.498 
-0.29 -0.67 -0.427384 0.434048 0.00976802 0.00970999 7.57812e-06 0.00974493 1.71484e-07 272.889 
-0.41 -0.83 -0.122709 0.27955 0.00975448 0.00972792 -3.51284e-06 0.00974003 1.71569e-07 272.616 
-0.39 -0.83 -0.279826 0.429042 0.00975126 0.00972709 6.29043e-06 0.00973735 1.7144e-07 272.746 
-0.37 -0.83 -0.324323 0.313504 0.0097422 0.00971204 9.35145e-06 0.00973361 1.71406e-07 272.696 
-0.35 -0.83 -0.45046 0.108075 0.00975107 0.009715 1.49603e-05 0.00973112 1.71293e-07 272.805 
-0.33 -0.83 -0.167559 0.206128 0.00974922 0.00971367 1.5287e-05 0.0097278 1.71098e-07 273.023 
-0.31 -0.83 -0.209045 -0.215534 0.00974609 0.00969796 1.33522e-05 0.00973324 1.71361e-07 272.756 
-0.29 -0.83 -0.500201 0.110876 0.00976692 0.00971621 9.92408e-06 0.00975026 1.71332e-07 273.28 
-0.27 -0.83 -0.447147 0.250694 0.00977075 0.00972357 8.17055e-06 0.00975515 1.71332e-07 273.418 
-0.27 -0.67 -0.529427 0.571445 0.00975828 0.00972118 1.41941e-05 0.00975048 1.7157e-07 272.908 
-0.25 -0.67 -0.345016 0.737323 0.00976405 0.00971425 1.52885e-06 0.00975412 1.71474e-07 273.163 
-0.25 -0.81 -0.55256 0.285483 0.00976898 0.00971459 6.58427e-06 0.00974815 1.71457e-07 273.021 
-0.25 -0.79 -0.456172 0.234394 0.00976323 0.00972743 1.58829e-05 0.00974541 1.71381e-07 273.066 
-0.35 -0.55 -0.214682 0.668948 0.00979024 0.00971017 7.84754e-06 0.0097525 1.71618e-07 272.887 
-0.39 -0.53 -0.0965373 1.03254 0.00978252 0.00969496 2.29465e-07 0.00975264 1.716e-07 272.921 
-0.37 -0.57 -0.361689 0.688207 0.0097846 0.00969669 4.66194e-06 0.00974877 1.71582e-07 272.841 
-0.41 -0.55 -0.0500855 0.877637 0.00976057 0.00970625 -4.19612e-06 0.00974091 1.71521e-07 272.717 
-0.45 -0.53 0.111085 0.624398 0.00976983 0.00969941 -6.62836e-06 0.00972951 1.71427e-07 272.547 
-0.35 -0.57 -0.21979 0.552066 0.00978495 0.00970156 2.16345e-05 0.00974762 1.71557e-07 272.847 
-0.39 -0.55 -0.138413 0.969449 0.00976254 0.00969217 2.58485e-06 0.00974669 1.71444e-07 273.002 
-0.43 -0.53 -0.148625 0.699714 0.00977734 0.00970149 3.11319e-06 0.00973907 1.71595e-07 272.548 
-0.47 -0.51 -0.270968 0.630958 0.00976622 0.00968962 -3.14282e-06 0.00972624 1.71488e-07 272.359 
-0.37 -0.55 -0.202683 0.712227 0.00976025 0.00967757 1.47496e-06 0.00973166 1.71123e-07 273.092 
-0.41 -0.53 -0.222016 0.790269 0.00978337 0.00970873 -3.2199e-06 0.00975054 1.71646e-07 272.788 
-0.45 -0.51 -0.455996 0.747459 0.00976476 0.00969471 3.91237e-06 0.00973404 1.71507e-07 272.546 
-0.37 -0.53 -0.115737 0.876006 0.0097828 0.00968796 -4.22107e-06 0.00973882 1.71421e-07 272.818 
-0.41 -0.51 -0.352953 0.799788 0.00975382 0.00970384 -1.87459e-06 0.00972845 1.71335e-07 272.663 
-0.35 -0.53 -0.410969 0.78073 0.0097649 0.00969209 6.29588e-06 0.00972972 1.71372e-07 272.64 
-0.39 -0.51 -0.502472 0.838947 0.00975593 0.00968878 2.10643e-06 0.00972617 1.71375e-07 272.537 
-0.37 -0.51 -0.406429 1.04419 0.00975498 0.00968166 7.96777e-06 0.00972172 1.71234e-07 272.636 
-0.35 -0.51 -0.465098 0.843526 0.00975429 0.00969097 9.17721e-06 0.00971951 1.71243e-07 272.56 
-0.49 -0.65 0.176184 0.391215 0.00976809 0.00971902 9.67811e-06 0.00974889 1.71584e-07 272.841 
-0.47 -0.65 -0.167903 0.435347 0.00976443 0.00971993 4.29087e-06 0.00974998 1.71642e-07 272.779 
-0.45 -0.65 -0.176015 0.589768 0.00975871 0.00972548 5.74453e-06 0.00975034 1.7185e-07 272.459 
-0.49 -0.63 -0.115808 0.337792 0.00974992 0.00972027 4.06771e-06 0.009748 1.71808e-07 272.46 
-0.43 -0.65 0.130741 0.744485 0.00974613 0.00969559 2.76102e-06 0.00972842 1.71381e-07 272.59 
-0.47 -0.63 -0.0691032 0.683459 0.00975261 0.00971855 -9.61075e-08 0.00974373 1.71712e-07 272.493 
-0.41 -0.65 0.00282941 0.332617 0.00976318 0.00970482 1.19152e-05 0.0097388 1.71501e-07 272.69 
-0.45 -0.63 -0.149507 0.537731 0.00976315 0.00972142 8.07548e-06 0.00974842 1.71706e-07 272.633 
-0.49 -0.61 -0.0834225 0.553819 0.00976436 0.00971753 -1.02249e-05 0.00975065 1.7174e-07 272.642 
-0.39 -0.65 -0.104741 0.271352 0.00976077 0.00971457 6.85206e-06 0.00974006 1.71344e-07 272.975 
-0.43 -0.63 -0.308519 0.612321 0.00977238 0.0097096 6.46922e-06 0.00974067 1.71337e-07 273.003 
-0.47 -0.61 -0.294085 0.654394 0.00976418 0.00971667 4.35058e-06 0.00974963 1.71707e-07 272.666 
-0.37 -0.65 -0.575165 0.577064 0.00975678 0.00969028 -1.98753e-07 0.00972591 1.71219e-07 272.778 
-0.41 -0.63 -0.270518 0.446946 0.00976358 0.00969087 4.39913e-06 0.00972892 1.71267e-07 272.785 
-0.45 -0.61 -0.309074 0.733408 0.00976064 0.00971655 -6.50134e-06 0.00974745 1.71504e-07 272.927 
-0.49 -0.59 -0.0473683 0.62124 0.00977409 0.00970149 -7.51526e-06 0.00974453 1.71589e-07 272.711 
-0.35 -0.65 -0.581205 0.461834 0.00976767 0.00973313 6.20294e-06 0.00974915 1.71681e-07 272.694 
-0.39 -0.63 -0.45793 0.596259 0.00977559 0.00971967 1.20724e-05 0.00973948 1.71475e-07 272.75 
-0.43 -0.61 -0.153939 0.668452 0.00976722 0.00970237 7.00844e-06 0.00973762 1.71231e-07 273.086 
-0.47 -0.59 -0.0303641 0.792707 0.00977922 0.00971927 -6.1718e-06 0.00975131 1.71751e-07 272.643 
-0.37 -0.63 -0.446557 0.630712 0.00976183 0.00969363 5.93703e-06 0.00972945 1.71437e-07 272.531 
-0.41 -0.61 -0.355341 0.487666 0.00977292 0.00971215 6.83013e-06 0.00973908 1.71278e-07 273.053 
-0.45 -0.59 0.0646738 0.409325 0.00978282 0.00971123 -1.2061e-06 0.00975715 1.71708e-07 272.874 
-0.49 -0.57 -0.0575063 0.58595 0.00977335 0.00969528 -1.22984e-05 0.00973183 1.71294e-07 272.824 
-0.35 -0.63 -0.442506 0.448132 0.00975744 0.00971854 7.71345e-06 0.00973489 1.71385e-07 272.765 
-0.39 -0.61 -0.280855 0.569378 0.00977631 0.00969984 1.80019e-06 0.00973657 1.71276e-07 272.985 
-0.43 -0.59 0.0824298 0.817959 0.00977826 0.00970681 4.93286e-06 0.00975103 1.71758e-07 272.623 
-0.47 -0.57 -0.048252 0.670985 0.00977381 0.00972335 -5.57469e-06 0.00974502 1.71664e-07 272.605 
-0.37 -0.61 -0.289737 0.591232 0.00978368 0.00970642 1.16992e-05 0.00974516 1.71448e-07 272.952 
-0.41 -0.59 0.141523 0.544902 0.00978055 0.00970625 -3.04483e-06 0.00974389 1.71462e-07 272.894 
-0.45 -0.57 0.0693819 0.466687 0.00977225 0.00969862 1.17212e-06 0.00973936 1.71411e-07 272.85 
-0.49 -0.55 0.0103381 0.624451 0.00975819 0.00969717 -1.25177e-05 0.00973245 1.71409e-07 272.658 
-0.35 -0.61 -0.264978 0.452113 0.0097779 0.00970528 6.02957e-06 0.00973623 1.71363e-07 272.837 
-0.39 -0.59 -0.0250719 0.689344 0.0097753 0.00968351 5.68803e-06 0.00973411 1.71294e-07 272.888 
-0.43 -0.57 0.0782935 0.734829 0.0097747 0.00970512 -4.00648e-06 0.00974558 1.71392e-07 273.054 
-0.47 -0.55 0.0222181 0.749441 0.00977067 0.0097042 -6.21954e-06 0.00974468 1.71759e-07 272.445 
-0.33 -0.61 -0.566944 0.645271 0.00977697 0.00970015 2.21681e-05 0.00974448 1.71423e-07 272.973 
-0.37 -0.59 -0.0321572 0.495119 0.00977638 0.00971971 1.44615e-05 0.00974681 1.71525e-07 272.876 
-0.41 -0.57 0.0308112 0.727274 0.00977975 0.00970566 1.26335e-05 0.00974442 1.71552e-07 272.766 
-0.45 -0.55 -0.146897 0.422639 0.00977075 0.00970127 -1.1844e-06 0.00973236 1.71462e-07 272.571 
-0.49 -0.53 0.054467 0.627334 0.00977532 0.0096999 -5.12675e-06 0.00974121 1.71594e-07 272.609 
-0.35 -0.59 -0.355454 0.695817 0.00976932 0.00969452 1.43093e-05 0.00972923 1.71515e-07 272.4 
-0.39 -0.57 -0.248734 0.873864 0.00978075 0.00969199 -2.31114e-06 0.00974529 1.71453e-07 272.947 
-0.43 -0.55 -0.0533312 0.620565 0.00976673 0.00970237 5.66224e-06 0.00974551 1.71524e-07 272.841 
-0.47 -0.53 0.090875 0.586264 0.00976651 0.00969316 -7.16669e-06 0.00973182 1.71469e-07 272.545 
-0.29 -0.57 -0.579565 0.549273 0.0097705 0.00969419 2.21428e-05 0.00973815 1.71354e-07 272.905 
-0.33 -0.55 -0.511513 0.968611 0.00979695 0.00971835 8.07853e-06 0.00975113 1.71557e-07 272.946 
-0.29 -0.61 -0.272574 0.72189 0.00976254 0.00970719 1.70049e-06 0.00973887 1.71557e-07 272.602 
-0.33 -0.59 -0.293234 0.870775 0.00977078 0.0097036 1.35405e-05 0.00973938 1.71341e-07 272.961 
-0.27 -0.61 -0.404893 0.437103 0.00976878 0.00970031 1.5254e-05 0.00973812 1.71399e-07 272.834 
-0.31 -0.59 -0.590619 0.774208 0.00977852 0.00972058 1.09098e-05 0.00975072 1.71597e-07 272.871 
-0.29 -0.59 -0.385422 0.343748 0.00979215 0.00970792 1.09481e-05 0.0097531 1.7156e-07 272.997 
-0.33 -0.57 -0.297174 0.949867 0.00978168 0.00970993 6.28797e-06 0.00974226 1.71451e-07 272.866 
-0.27 -0.59 -0.272118 0.779323 0.00977523 0.00968795 1.55754e-05 0.00973414 1.71237e-07 272.98 
-0.31 -0.57 -0.282768 0.791393 0.00978278 0.0097171 1.5043e-06 0.00975105 1.7166e-07 272.78 
-0.27 -0.57 -0.780493 0.719406 0.00976591 0.00969437 2.70037e-05 0.00974529 1.71579e-07 272.748 
-0.31 -0.55 -0.268529 0.943443 0.00977429 0.00970072 2.60073e-05 0.00974246 1.71401e-07 272.952 
-0.29 -0.55 -0.421147 0.707247 0.00976057 0.00968211 2.46468e-05 0.00972652 1.71158e-07 272.892 
-0.33 -0.53 -0.231673 1.06026 0.00976209 0.0096979 1.76688e-05 0.00972985 1.71235e-07 272.862 
-0.27 -0.55 -0.384492 0.722724 0.00976073 0.00969997 1.97386e-05 0.00972743 1.71314e-07 272.669 
-0.31 -0.53 -0.341879 0.769132 0.00976646 0.00970506 3.01208e-05 0.0097411 1.71489e-07 272.774 
-0.29 -0.53 -0.360339 0.802141 0.00978497 0.00968929 2.64261e-05 0.00974451 1.71419e-07 272.981 
-0.33 -0.51 -0.426954 0.812057 0.00974853 0.00968266 2.15619e-05 0.00971722 1.71024e-07 272.844 
-0.27 -0.53 -0.526244 0.880935 0.00977789 0.00969845 2.46301e-05 0.00973905 1.7128e-07 273.048 
-0.31 -0.51 -0.163776 0.744193 0.00975126 0.00970361 1.90676e-05 0.00972286 1.71143e-07 272.812 
-0.29 -0.51 -0.118594 0.951703 0.00974593 0.00968725 2.20982e-05 0.00972873 1.71148e-07 272.97 
-0.27 -0.51 -0.292927 1.22777 0.00975793 0.00970039 2.91875e-05 0.00973457 1.71109e-07 273.195 
-0.33 -0.65 -0.393958 0.500397 0.00977571 0.00970465 1.49778e-05 0.00975064 1.7147e-07 273.07 
-0.31 -0.65 -0.259704 0.763703 0.00977263 0.00970099 9.35327e-06 0.00974534 1.71503e-07 272.87 
-0.29 -0.65 -0.448892 0.702698 0.00975459 0.00969336 9.90977e-06 0.00972956 1.71265e-07 272.806 
-0.33 -0.63 -0.347683 0.58805 0.00974989 0.00970997 1.11935e-05 0.00973931 1.71545e-07 272.635 
-0.27 -0.65 -0.504883 0.489627 0.00976977 0.00972968 7.5492e-06 0.00975064 1.71619e-07 272.834 
-0.31 -0.63 -0.67406 0.763597 0.00974142 0.00969236 1.23649e-05 0.0097282 1.71188e-07 272.89 
-0.25 -0.65 -0.632196 0.50307 0.00975904 0.0097087 8.43789e-06 0.00974268 1.71608e-07 272.628 
-0.29 -0.63 -0.737506 0.517516 0.00976135 0.00971285 6.03869e-06 0.00974184 1.71591e-07 272.632 
-0.27 -0.63 -0.604262 0.540608 0.00975025 0.00971981 8.30967e-06 0.00974094 1.71637e-07 272.534 
-0.31 -0.61 -0.466513 0.784816 0.0097799 0.00971524 1.42073e-05 0.00975335 1.71711e-07 272.764 
-0.49 -0.67 -0.0219824 0.398668 0.00976843 0.00971101 -1.01472e-06 0.00974583 1.71429e-07 273.002 
-0.47 -0.67 -0.00758449 0.171342 0.00976739 0.00972329 -4.77273e-06 0.00974109 1.7162e-07 272.565 
-0.45 -0.67 0.0679532 0.810736 0.00975937 0.00972042 3.80572e-06 0.00973858 1.7162e-07 272.495 