ITEM: TIMESTEP
1071000
ITEM: NUMBER OF CELLS
5000
ITEM: BOX BOUNDS ss ss pp
-0.5 0.5
-1 1
-0.5 0.5
ITEM: CELLS xc yc f_U[*] f_V[*] f_Tau[1] f_Tau[2] f_Tau[3] f_Press[*] f_Mrho[*] f_Ttra[*] 
-0.49 -0.99 -0.0474573 0.0977336 0.00976424 0.00973769 7.64566e-06 0.0097508 1.71513e-07 273.006 
-0.47 -0.99 -0.151924 0.033123 0.00975019 0.00972027 6.41514e-06 0.00973939 1.71429e-07 272.821 
-0.45 -0.99 -0.25231 -0.0077155 0.009753 0.00972823 4.34837e-06 0.0097446 1.7143e-07 272.965 
-0.49 -0.97 -0.0515286 0.168001 0.00974596 0.00972525 9.47722e-06 0.00973501 1.71316e-07 272.879 
-0.43 -0.99 -0.266899 -0.0598436 0.00974744 0.00972105 4.28568e-06 0.00973925 1.7131e-07 273.007 
-0.47 -0.97 -0.0967067 0.0888722 0.00974871 0.00972327 1.29042e-05 0.00973939 1.71363e-07 272.925 
-0.41 -0.99 -0.0656982 -0.0870596 0.00974193 0.00972518 2.44245e-06 0.00973903 1.71296e-07 273.022 
-0.45 -0.97 -0.0450556 0.0311273 0.00974464 0.00973274 5.13334e-06 0.00974394 1.71431e-07 272.945 
-0.49 -0.95 0.073014 0.12308 0.00973669 0.00971579 2.0271e-06 0.00973249 1.71253e-07 272.908 
-0.39 -0.99 -0.118447 0.102731 0.00974426 0.0097269 2.70055e-06 0.00973723 1.71169e-07 273.175 
-0.43 -0.97 -0.00627385 0.0210195 0.00974588 0.0097197 3.54708e-06 0.00973791 1.71305e-07 272.976 
-0.47 -0.95 0.112528 0.0813312 0.00975016 0.0097263 1.43742e-06 0.00973987 1.71373e-07 272.924 
-0.37 -0.99 -0.16068 -0.0226839 0.00974182 0.00972848 8.35438e-06 0.00973813 1.71291e-07 273.006 
-0.41 -0.97 -0.190728 -0.20819 0.00974421 0.00972608 5.34811e-06 0.00973828 1.71372e-07 272.881 
-0.45 -0.95 0.174947 -0.0462872 0.00975743 0.00973651 6.6226e-06 0.00975452 1.71605e-07 272.964 
-0.49 -0.93 -0.0191459 0.0631252 0.00976641 0.00972234 7.46315e-07 0.00974931 1.71532e-07 272.934 
-0.35 -0.99 -0.124666 -0.0668161 0.00973573 0.00971351 3.7904e-06 0.00972206 1.71127e-07 272.816 
-0.39 -0.97 -0.0291492 0.051955 0.00974213 0.00972531 6.76731e-06 0.00974004 1.71417e-07 272.857 
-0.43 -0.95 0.133114 0.0287621 0.00975729 0.00971717 7.0377e-06 0.00974394 1.71448e-07 272.918 
-0.47 -0.93 0.0205961 0.0405424 0.00975678 0.00972112 1.34263e-06 0.00974408 1.71508e-07 272.826 
-0.33 -0.99 -0.0696891 0.0217071 0.00973348 0.0097317 7.28028e-06 0.00973084 1.71261e-07 272.849 
-0.37 -0.97 -0.00581262 -0.0347051 0.00973897 0.00972773 4.68049e-06 0.00974048 1.71336e-07 272.999 
-0.41 -0.95 0.039294 0.0126819 0.00975669 0.00972831 3.82625e-06 0.00974344 1.71524e-07 272.783 
-0.45 -0.93 -0.0484322 0.0392079 0.00975534 0.00973172 6.97696e-06 0.00974633 1.71548e-07 272.826 
-0.49 -0.91 -0.00263113 0.162965 0.00977066 0.00972497 1.19077e-05 0.00975105 1.71453e-07 273.11 
-0.35 -0.97 -0.0282168 -0.0307771 0.00973949 0.00971676 1.03211e-05 0.00973219 1.7121e-07 272.967 
-0.39 -0.95 -0.169965 -0.0120762 0.00975353 0.00972508 8.00785e-06 0.0097384 1.71433e-07 272.787 
-0.43 -0.93 -0.0657166 0.0954257 0.00975258 0.00972307 2.35451e-06 0.00973623 1.71382e-07 272.808 
-0.47 -0.91 -0.212509 0.0415452 0.00976534 0.00972356 6.87527e-06 0.00974498 1.71526e-07 272.823 
-0.33 -0.97 -0.104609 0.00324197 0.00974365 0.00972725 6.47859e-06 0.00974102 1.71476e-07 272.792 
-0.37 -0.95 -0.154709 -0.0488017 0.00975397 0.00972299 1.14498e-05 0.00974166 1.71306e-07 273.081 
-0.41 -0.93 -0.0950533 0.0359567 0.00975128 0.00972277 9.31391e-06 0.00973153 1.71283e-07 272.832 
-0.45 -0.91 -0.0918759 0.0400373 0.0097651 0.00972509 5.7263e-06 0.00975034 1.71537e-07 272.956 
-0.49 -0.89 -0.00831505 0.139643 0.00977017 0.00972518 1.0429e-05 0.00974896 1.71448e-07 273.059 
-0.35 -0.95 -0.0869425 -0.0143108 0.00975284 0.00972004 3.50881e-06 0.00973895 1.71356e-07 272.924 
-0.39 -0.93 -0.000427567 -0.028584 0.00974976 0.00972306 8.07606e-06 0.00973989 1.71559e-07 272.628 
-0.43 -0.91 -0.174685 0.0664773 0.00976181 0.00973005 8.9951e-06 0.00974293 1.71335e-07 273.07 
-0.47 -0.89 0.125543 0.135536 0.00977008 0.00973146 8.10734e-06 0.00974937 1.71598e-07 272.831 
-0.37 -0.93 -0.0223724 3.52905e-05 0.00975546 0.0097258 2.97611e-06 0.00974609 1.71456e-07 272.966 
-0.41 -0.91 -0.0689807 7.41695e-05 0.00976612 0.00971425 2.64389e-06 0.0097382 1.71309e-07 272.978 
-0.45 -0.89 -0.0359826 0.174963 0.0097624 0.00971899 4.85595e-06 0.00974393 1.71422e-07 272.959 
-0.49 -0.87 -0.0268426 0.180203 0.00975179 0.00971498 -1.91289e-07 0.00973214 1.71248e-07 272.907 
-0.35 -0.93 -0.262211 0.00292305 0.00975798 0.00972164 8.42442e-06 0.00973972 1.71438e-07 272.816 
-0.39 -0.91 -0.0873086 -0.0608563 0.00977096 0.00972829 1.11235e-05 0.00975304 1.71669e-07 272.822 
-0.43 -0.89 -0.0965751 -0.00552736 0.00976792 0.00973598 6.60517e-06 0.00975127 1.71456e-07 273.11 
-0.47 -0.87 0.0710455 0.127532 0.00976039 0.00973191 9.60502e-06 0.00974316 1.71378e-07 273.007 
-0.37 -0.91 -0.216442 0.193017 0.00975634 0.00972404 8.92529e-06 0.00974088 1.71599e-07 272.593 
-0.41 -0.89 -0.0977496 -0.0329023 0.00976133 0.00971161 4.7295e-06 0.00974128 1.71519e-07 272.731 
-0.45 -0.87 -0.0900895 0.181457 0.00976581 0.00971988 9.11928e-06 0.00974884 1.71462e-07 273.033 
-0.49 -0.85 -0.0607388 0.167925 0.00975391 0.00971468 -9.81094e-07 0.00973194 1.71197e-07 272.982 
-0.35 -0.91 -0.115777 0.101369 0.0097495 0.00972367 3.43502e-06 0.00973671 1.71426e-07 272.751 
-0.39 -0.89 -0.0581124 0.123958 0.00975436 0.00971747 9.90322e-06 0.00974288 1.71462e-07 272.867 
-0.43 -0.87 -0.0860297 0.110643 0.0097539 0.0097357 9.97397e-06 0.00974716 1.71517e-07 272.898 
-0.47 -0.85 -0.148954 0.22323 0.00975418 0.00972129 1.72138e-06 0.00974271 1.71339e-07 273.057 
-0.33 -0.91 -0.185446 -0.0217514 0.00975657 0.00972087 1.07895e-05 0.00974143 1.71407e-07 272.914 
-0.37 -0.89 -0.153309 0.0948541 0.00976481 0.00973548 1.47692e-05 0.0097578 1.71686e-07 272.927 
-0.41 -0.87 -0.193151 -0.0556251 0.00975831 0.00971316 7.16037e-06 0.00974058 1.71534e-07 272.688 
-0.45 -0.85 -0.117651 0.194053 0.00975979 0.00971806 6.81932e-06 0.00974312 1.71339e-07 273.07 
-0.35 -0.89 -0.233587 0.136124 0.0097678 0.00972159 8.75222e-06 0.00974172 1.71471e-07 272.819 
-0.39 -0.87 -0.298775 0.15482 0.00976805 0.00971685 4.62974e-06 0.00974645 1.71602e-07 272.744 
-0.43 -0.85 -0.20032 0.161336 0.00977229 0.00973856 6.58157e-06 0.00975039 1.71638e-07 272.797 
-0.37 -0.87 -0.35001 0.210334 0.00977058 0.00973062 6.77338e-06 0.00975507 1.71664e-07 272.885 
-0.41 -0.85 -0.18184 0.078833 0.00976944 0.0097165 8.79846e-06 0.00974528 1.7159e-07 272.729 
-0.35 -0.87 -0.283198 0.0916042 0.00976805 0.00972296 1.00343e-05 0.00974413 1.71448e-07 272.924 
-0.39 -0.85 -0.267132 0.31364 0.00976482 0.00971796 3.1676e-06 0.00974722 1.71606e-07 272.758 
-0.33 -0.87 -0.330481 0.121806 0.0097642 0.00972289 1.20689e-05 0.00974593 1.71537e-07 272.833 
-0.37 -0.85 -0.266944 0.0211415 0.00976524 0.00972392 8.66826e-06 0.00974676 1.71496e-07 272.921 
-0.35 -0.85 -0.252157 0.153134 0.00976587 0.00971998 1.11954e-05 0.0097438 1.71396e-07 272.997 
-0.33 -0.85 -0.376978 0.357209 0.00976693 0.00972553 1.22661e-05 0.00974436 1.71453e-07 272.921 
-0.31 -0.99 -0.0120089 -0.0478149 0.00972984 0.0097169 1.44465e-05 0.00972161 1.71195e-07 272.695 
-0.29 -0.99 -0.0835659 0.0471526 0.00973015 0.00971672 8.46212e-06 0.00972889 1.71179e-07 272.925 
-0.27 -0.99 -0.132985 0.0208291 0.00974427 0.0097276 7.51952e-06 0.00973681 1.71193e-07 273.125 
-0.31 -0.97 -0.3576 -0.0101891 0.0097505 0.00972329 6.32774e-06 0.00973833 1.71388e-07 272.856 
-0.29 -0.97 -0.439341 0.209752 0.00975724 0.00972032 7.79624e-06 0.00974816 1.71497e-07 272.959 
-0.33 -0.95 -0.0874892 0.135711 0.00975144 0.00972605 9.92759e-06 0.00974001 1.71357e-07 272.952 
-0.27 -0.97 -0.315059 -0.115062 0.00974349 0.00972019 1.02923e-05 0.00973682 1.7133e-07 272.907 
-0.31 -0.95 -0.129861 0.18733 0.00974804 0.00972315 8.17205e-06 0.00973278 1.71307e-07 272.83 
-0.29 -0.95 -0.088692 0.104471 0.00974067 0.00971043 1.01393e-05 0.00972512 1.71211e-07 272.769 
-0.33 -0.93 -0.262718 0.157642 0.00975905 0.00972134 3.48223e-06 0.00973727 1.71341e-07 272.901 
-0.27 -0.95 -0.284968 -0.0923389 0.00974915 0.00972736 6.53238e-06 0.00973813 1.7134e-07 272.927 
-0.31 -0.93 -0.088204 0.0421413 0.00976019 0.00972026 9.97049e-06 0.00973984 1.7151e-07 272.704 
-0.29 -0.93 -0.169223 0.205606 0.00976491 0.00971538 1.02548e-05 0.00974267 1.71486e-07 272.822 
-0.27 -0.93 -0.16684 0.128356 0.00976297 0.00972358 6.91558e-06 0.00974554 1.7153e-07 272.832 
-0.31 -0.91 -0.217806 0.129224 0.00975727 0.00971895 9.48615e-06 0.00973931 1.71423e-07 272.829 
-0.29 -0.91 -0.249005 0.181632 0.0097561 0.00971662 2.22045e-06 0.0097339 1.71388e-07 272.733 
-0.33 -0.89 -0.247805 0.0297333 0.00975989 0.00972194 5.02443e-06 0.0097424 1.71404e-07 272.946 
-0.27 -0.91 -0.143422 0.142973 0.00975909 0.0097221 6.38788e-06 0.00973992 1.71514e-07 272.701 
-0.31 -0.89 -0.207326 0.177652 0.00976233 0.00972162 3.90705e-06 0.00974541 1.71487e-07 272.898 
-0.29 -0.89 -0.202994 0.0702444 0.00975894 0.00971502 8.87743e-06 0.00974074 1.71324e-07 273.025 
-0.27 -0.89 -0.29192 0.268216 0.0097523 0.00971965 1.01597e-05 0.00974303 1.71466e-07 272.864 
-0.31 -0.87 -0.48528 0.196892 0.0097594 0.00972073 7.51555e-06 0.00973989 1.71445e-07 272.81 
-0.29 -0.87 -0.444808 0.12351 0.00975607 0.00971059 9.88237e-06 0.00973863 1.71334e-07 272.951 
-0.27 -0.87 -0.436867 0.262551 0.00975667 0.00972116 1.38021e-05 0.00974311 1.71411e-07 272.953 
-0.31 -0.85 -0.39176 0.0486967 0.00976392 0.00972107 1.52154e-05 0.0097465 1.71468e-07 272.958 
-0.29 -0.85 -0.292827 0.186138 0.0097561 0.00971003 1.32445e-05 0.00974067 1.71403e-07 272.899 
-0.27 -0.85 -0.359514 0.196365 0.00975473 0.00972037 1.1665e-05 0.0097409 1.71205e-07 273.22 
-0.25 -0.99 -0.229667 0.0778287 0.00975029 0.00973793 1.23713e-05 0.00974695 1.71395e-07 273.087 
-0.25 -0.97 -0.193705 0.0501026 0.00974242 0.00973056 8.43107e-06 0.0097399 1.71425e-07 272.843 
-0.25 -0.95 -0.388674 0.0673359 0.00975019 0.00973224 8.1921e-06 0.00974282 1.71406e-07 272.954 
-0.25 -0.93 -0.213376 0.0543766 0.00975967 0.0097336 1.04854e-05 0.00974506 1.71558e-07 272.775 
-0.25 -0.91 -0.286895 0.0967247 0.00975917 0.00973195 9.51322e-06 0.00974832 1.7166e-07 272.703 
-0.25 -0.89 -0.338659 0.240796 0.00974927 0.0097253 1.40209e-05 0.00973856 1.71415e-07 272.82 
-0.25 -0.87 -0.440347 0.264215 0.00975214 0.00972091 1.61102e-05 0.00973965 1.7136e-07 272.938 
-0.25 -0.85 -0.286755 0.300075 0.00976155 0.00972088 1.1809e-05 0.00974643 1.71421e-07 273.032 
-0.25 -0.83 -0.386581 0.212138 0.0097638 0.00971738 8.59847e-06 0.00974539 1.71413e-07 273.014 
-0.33 -0.81 -0.139437 0.224159 0.00976214 0.0097122 1.08857e-05 0.00973987 1.71419e-07 272.85 
-0.31 -0.81 -0.241709 0.22831 0.00977806 0.00972197 1.30929e-05 0.00975239 1.71498e-07 273.075 
-0.29 -0.81 -0.224106 0.172581 0.00977968 0.00972377 8.6268e-06 0.00975412 1.71551e-07 273.039 
-0.27 -0.81 -0.319828 0.271953 0.00977608 0.0097214 1.3482e-05 0.00975538 1.716e-07 272.997 
-0.31 -0.79 -0.241821 0.167228 0.00975924 0.00971819 5.40888e-06 0.00973834 1.7144e-07 272.775 
-0.29 -0.79 -0.287873 0.382419 0.00975934 0.00972048 1.24798e-05 0.00973975 1.71484e-07 272.744 
-0.33 -0.77 -0.289049 0.346387 0.00976885 0.00972398 1.61178e-05 0.00974585 1.71526e-07 272.847 
-0.27 -0.79 -0.393947 0.246573 0.00976243 0.00971485 1.08024e-05 0.00974092 1.71454e-07 272.824 
-0.31 -0.77 -0.290468 0.166538 0.00976358 0.00971417 1.16552e-05 0.00974139 1.71478e-07 272.8 
-0.29 -0.77 -0.265241 0.364785 0.00975928 0.00971813 8.11834e-06 0.00974017 1.71508e-07 272.716 
-0.27 -0.77 -0.281808 0.221161 0.00975784 0.00971336 8.05348e-06 0.00973846 1.71389e-07 272.858 
-0.31 -0.75 -0.196526 0.36389 0.00976913 0.00971868 1.1679e-05 0.00974867 1.71601e-07 272.808 
-0.29 -0.75 -0.460585 0.312052 0.00976723 0.00972165 1.20421e-05 0.00974909 1.71581e-07 272.851 
-0.27 -0.75 -0.500267 0.50648 0.00976636 0.00970812 1.76139e-05 0.00973624 1.71353e-07 272.854 
-0.49 -0.83 0.0113801 0.2646 0.00975599 0.00971673 2.0279e-07 0.00973638 1.71333e-07 272.889 
-0.47 -0.83 -0.110713 0.218587 0.00975769 0.00971707 1.68809e-06 0.00973896 1.71523e-07 272.66 
-0.45 -0.83 -0.117461 0.269958 0.00975674 0.00972196 -7.53006e-07 0.00974115 1.71404e-07 272.91 
-0.49 -0.81 -0.0557858 0.310187 0.00976634 0.00972152 1.52876e-06 0.00974241 1.7149e-07 272.808 
-0.43 -0.83 -0.113467 0.254408 0.00975519 0.00972291 5.44279e-06 0.00973967 1.71402e-07 272.873 
-0.47 -0.81 -0.131374 0.267838 0.00976199 0.00971576 5.26147e-07 0.00974286 1.71513e-07 272.785 
-0.45 -0.81 -0.0672628 0.248203 0.009766 0.00972446 2.40079e-06 0.00974469 1.71481e-07 272.887 
-0.49 -0.79 -0.0361364 0.50125 0.00975997 0.00972149 3.84248e-06 0.00973928 1.71385e-07 272.888 
-0.43 -0.81 -0.0546646 0.260883 0.00976098 0.00971286 4.74295e-06 0.00973873 1.71552e-07 272.606 
-0.47 -0.79 -0.0219248 0.15725 0.00975985 0.00971912 -4.16762e-06 0.00974163 1.71447e-07 272.855 
-0.41 -0.81 -0.180763 0.168423 0.00976398 0.00972703 8.84588e-06 0.00975047 1.71589e-07 272.877 
-0.45 -0.79 -0.0633859 0.255896 0.00975907 0.00971689 3.0952e-06 0.00973575 1.71446e-07 272.693 
-0.49 -0.77 0.0638764 0.387053 0.00975996 0.00972351 6.00733e-06 0.00974305 1.71408e-07 272.957 
-0.39 -0.81 -0.232721 0.221395 0.00976035 0.00971876 1.30266e-05 0.00974463 1.7156e-07 272.759 
-0.43 -0.79 -0.25642 0.3336 0.00976775 0.00971214 5.26482e-06 0.00973966 1.71555e-07 272.628 
-0.47 -0.77 0.0379623 0.297701 0.00975987 0.0097252 2.63801e-06 0.00974441 1.71478e-07 272.883 
-0.37 -0.81 -0.053599 0.159665 0.00975825 0.00972052 9.8557e-06 0.00973931 1.7155e-07 272.626 
-0.41 -0.79 -0.259635 0.275968 0.00976969 0.00972673 7.80713e-06 0.00975254 1.71709e-07 272.744 
-0.45 -0.77 -0.199226 0.417755 0.00975985 0.00971219 -3.51412e-06 0.00973555 1.71438e-07 272.699 
-0.35 -0.81 -0.0277506 0.205152 0.00975363 0.00971484 4.894e-06 0.0097377 1.71436e-07 272.763 
-0.39 -0.79 -0.220004 0.128643 0.00976585 0.00971365 7.1065e-06 0.00974053 1.7155e-07 272.66 
-0.43 -0.77 -0.189682 0.391976 0.00975848 0.00971063 1.86053e-06 0.00973436 1.71434e-07 272.673 
-0.37 -0.79 -0.281037 0.158567 0.00977358 0.00972143 1.09758e-05 0.00974542 1.71584e-07 272.743 
-0.41 -0.77 -0.17824 0.150923 0.00975977 0.00971569 8.7046e-06 0.00973737 1.71395e-07 272.819 
-0.35 -0.79 -0.220065 0.164229 0.00977298 0.0097174 1.24717e-05 0.00974633 1.71593e-07 272.755 
-0.39 -0.77 -0.11226 0.145863 0.00976055 0.00972266 1.18121e-05 0.00974672 1.71594e-07 272.764 
-0.43 -0.75 0.0298195 0.202975 0.00976859 0.00970892 -1.42701e-06 0.00974075 1.71465e-07 272.802 
-0.33 -0.79 -0.245774 0.309085 0.00976369 0.00971565 5.02606e-06 0.00973961 1.71417e-07 272.846 
-0.37 -0.77 -0.131043 0.23694 0.00976044 0.00971933 3.50526e-06 0.00974031 1.71488e-07 272.753 
-0.41 -0.75 -0.0434069 0.327313 0.00976934 0.00970663 6.90925e-06 0.00974351 1.71615e-07 272.641 
-0.35 -0.77 -0.320259 0.238162 0.00976845 0.00971465 7.62945e-06 0.00974177 1.71471e-07 272.82 
-0.39 -0.75 -0.1891 0.19062 0.00977407 0.00972619 8.61062e-06 0.00975164 1.71688e-07 272.752 
-0.49 -0.75 -0.00590351 0.273724 0.00976667 0.00972826 5.87046e-06 0.00975184 1.71523e-07 273.021 
-0.47 -0.75 -0.012946 0.501679 0.00976525 0.00973053 4.3638e-06 0.00974514 1.71428e-07 272.983 
-0.45 -0.75 -0.0753109 0.497797 0.00976398 0.00971048 1.1828e-07 0.00973352 1.71449e-07 272.625 
-0.49 -0.73 -0.106625 0.430869 0.00977285 0.00972099 5.92499e-06 0.00974877 1.71487e-07 272.992 
-0.47 -0.73 -0.221706 0.467498 0.00977635 0.00973911 3.2866e-06 0.00975577 1.71493e-07 273.178 
-0.45 -0.73 -0.1286 0.318281 0.00977616 0.0097166 -4.5278e-06 0.00974291 1.71424e-07 272.927 
-0.49 -0.71 -0.0256739 0.595908 0.00977427 0.00972087 -3.14013e-07 0.00974651 1.71523e-07 272.871 
-0.43 -0.73 -0.100474 0.348001 0.00976467 0.00970198 3.0722e-06 0.00973617 1.71391e-07 272.792 
-0.47 -0.71 -0.0645761 0.481652 0.00977575 0.00973659 1.44183e-06 0.00975513 1.71472e-07 273.193 
-0.37 -0.75 -0.186245 0.166453 0.00976991 0.00972091 1.0541e-05 0.00974243 1.71569e-07 272.684 
-0.41 -0.73 -0.194019 0.342567 0.00976756 0.00970285 6.42095e-07 0.00973807 1.71576e-07 272.55 
-0.45 -0.71 -0.0186964 0.247802 0.00976666 0.00971474 8.46656e-06 0.00974096 1.71325e-07 273.03 
-0.49 -0.69 0.0452073 0.57391 0.00976981 0.00971769 -5.88195e-06 0.00974533 1.71443e-07 272.965 
-0.35 -0.75 -0.0571703 0.260377 0.00976245 0.00971095 8.35089e-06 0.00973628 1.71396e-07 272.787 
-0.39 -0.73 -0.212627 0.177028 0.00977284 0.00971791 1.02516e-05 0.00974401 1.71522e-07 272.803 
-0.43 -0.71 -0.169411 0.38202 0.0097671 0.00970797 2.44176e-06 0.00974037 1.71567e-07 272.63 
-0.47 -0.69 0.129534 0.43896 0.00977082 0.00972689 4.95765e-06 0.00975003 1.71438e-07 273.104 
-0.37 -0.73 -0.292143 0.240941 0.00977431 0.0097254 1.08058e-05 0.00974777 1.71609e-07 272.769 
-0.41 -0.71 -0.129834 0.442391 0.00976877 0.00969647 -8.34244e-07 0.00973746 1.71673e-07 272.379 
-0.45 -0.69 -0.0323725 0.394903 0.00977799 0.00971395 7.33287e-06 0.00974824 1.7151e-07 272.939 
-0.35 -0.73 -0.504067 0.359368 0.00977402 0.00971159 1.05115e-05 0.00974659 1.71605e-07 272.743 
-0.39 -0.71 -0.213109 0.222974 0.00976816 0.00971881 1.12763e-06 0.00974142 1.71542e-07 272.699 
-0.43 -0.69 -0.101439 0.436269 0.00977804 0.00971763 7.72254e-06 0.00975205 1.71751e-07 272.663 
-0.33 -0.73 -0.346034 0.244121 0.0097734 0.00970861 1.40572e-05 0.00974197 1.71587e-07 272.641 
-0.37 -0.71 -0.141595 0.213921 0.00977187 0.00971903 1.26068e-05 0.00974715 1.71596e-07 272.773 
-0.41 -0.69 -0.117079 0.354302 0.0097698 0.00970048 9.66282e-07 0.00973657 1.71599e-07 272.471 
-0.35 -0.71 -0.255306 0.502643 0.00977083 0.00970711 9.28878e-06 0.00974574 1.71556e-07 272.796 
-0.39 -0.69 -0.134087 0.387839 0.00976534 0.00970751 4.71076e-06 0.00973741 1.71441e-07 272.746 
-0.37 -0.69 -0.336623 0.279038 0.00976479 0.00971553 9.55309e-06 0.00974277 1.71538e-07 272.742 
-0.35 -0.69 -0.290764 0.513832 0.0097646 0.00970473 1.19456e-05 0.0097352 1.71404e-07 272.743 
-0.35 -0.67 -0.28338 0.396552 0.00977118 0.00971446 1.14437e-05 0.00974338 1.71477e-07 272.857 
-0.33 -0.67 -0.41586 0.567075 0.0097572 0.00970494 8.83652e-06 0.00973896 1.71494e-07 272.706 
-0.33 -0.75 -0.116232 0.310938 0.00976234 0.00971508 1.069e-05 0.00973759 1.71411e-07 272.799 
-0.31 -0.73 -0.431741 0.465223 0.00976904 0.00972307 1.10328e-05 0.00974995 1.71578e-07 272.88 
-0.29 -0.73 -0.385595 0.457338 0.00977214 0.00971462 1.2937e-05 0.00974964 1.71514e-07 272.973 
-0.33 -0.71 -0.473556 0.170677 0.0097691 0.00971224 1.36957e-05 0.00974326 1.71506e-07 272.806 
-0.27 -0.73 -0.494613 0.559395 0.00976569 0.00971502 1.78054e-05 0.00974462 1.71441e-07 272.948 
-0.31 -0.71 -0.338912 0.501919 0.00976835 0.00972364 1.47365e-05 0.00974809 1.71533e-07 272.9 
-0.29 -0.71 -0.432758 0.442617 0.00976157 0.0097086 1.70422e-05 0.0097408 1.71338e-07 273.006 
-0.33 -0.69 -0.276239 0.293628 0.00977539 0.00971393 6.47465e-06 0.00974816 1.71672e-07 272.68 
-0.27 -0.71 -0.360334 0.459986 0.00976583 0.00971272 1.2406e-05 0.00974088 1.71327e-07 273.026 
-0.31 -0.69 -0.513667 0.490346 0.0097785 0.00971766 1.60711e-05 0.0097502 1.71601e-07 272.851 
-0.29 -0.69 -0.493101 0.574004 0.00977635 0.00971168 1.94665e-05 0.00974813 1.71504e-07 272.946 
-0.27 -0.69 -0.545727 0.376327 0.00977326 0.0097181 1.46103e-05 0.00974447 1.71382e-07 273.039 
-0.31 -0.67 -0.435954 0.54858 0.00975565 0.00971333 1.31884e-05 0.00973736 1.71441e-07 272.746 
-0.29 -0.67 -0.430434 0.470118 0.00976293 0.00971193 1.67501e-05 0.00974123 1.71298e-07 273.081 
-0.41 -0.83 -0.176603 0.070161 0.00975679 0.00972398 1.03456e-05 0.00974143 1.71533e-07 272.712 
-0.39 -0.83 -0.159811 0.301719 0.00975547 0.00972097 4.63998e-06 0.00973653 1.7147e-07 272.675 
-0.37 -0.83 -0.217166 0.229409 0.0097518 0.00971946 4.34989e-06 0.00973656 1.71335e-07 272.891 
-0.35 -0.83 -0.316958 0.104922 0.00975768 0.00971618 1.51815e-05 0.00973781 1.71425e-07 272.783 
-0.33 -0.83 -0.174095 0.335059 0.00975893 0.0097255 1.2901e-05 0.00974063 1.71325e-07 273.022 
-0.31 -0.83 -0.120444 -0.0604547 0.00975293 0.00971189 1.78854e-05 0.00973993 1.71451e-07 272.802 
-0.29 -0.83 -0.258762 0.216026 0.00976006 0.0097204 1.58954e-05 0.00974575 1.71346e-07 273.132 
-0.27 -0.83 -0.270618 0.322655 0.00976137 0.00972088 7.71622e-06 0.00974701 1.71406e-07 273.07 
-0.27 -0.67 -0.443114 0.510695 0.00976329 0.00972052 1.79152e-05 0.00974312 1.71391e-07 272.986 
-0.25 -0.67 -0.499166 0.41261 0.00976866 0.00971609 1.20741e-05 0.00974868 1.71351e-07 273.205 
-0.25 -0.81 -0.288812 0.34782 0.00976333 0.00971601 7.58418e-06 0.00974419 1.71417e-07 272.975 
-0.25 -0.79 -0.280652 0.248163 0.00976897 0.00972229 2.03967e-05 0.00974498 1.71447e-07 272.948 
-0.35 -0.55 -0.23123 0.775126 0.00978333 0.0097077 6.40286e-06 0.00974527 1.71461e-07 272.935 
-0.39 -0.53 -0.276615 0.868115 0.0097776 0.00969209 5.41993e-06 0.00973737 1.71444e-07 272.741 
-0.37 -0.57 -0.290069 0.751235 0.00976955 0.00970293 1.08982e-05 0.00974376 1.71314e-07 273.127 
-0.41 -0.55 -0.201068 0.92612 0.00976241 0.00969788 7.37288e-06 0.00973684 1.71399e-07 272.797 
-0.45 -0.53 -0.0951516 0.582263 0.00976156 0.0096957 -4.25996e-06 0.00972839 1.71304e-07 272.711 
-0.35 -0.57 -0.242314 0.739648 0.00977748 0.00970091 1.73269e-05 0.00974404 1.71488e-07 272.858 
-0.39 -0.55 -0.293548 0.707645 0.00976603 0.00969087 4.26668e-06 0.00973794 1.71384e-07 272.851 
-0.43 -0.53 -0.208222 0.906213 0.00976898 0.00969272 2.60395e-06 0.00973341 1.7144e-07 272.636 
-0.47 -0.51 -0.0678112 0.795898 0.00977365 0.00970303 -2.50564e-06 0.00974205 1.71533e-07 272.731 
-0.37 -0.55 -0.253583 0.739279 0.00976937 0.009695 9.36642e-06 0.00973954 1.71288e-07 273.05 
-0.41 -0.53 -0.273051 0.731501 0.0097753 0.00969928 5.36056e-06 0.00973763 1.71457e-07 272.727 
-0.45 -0.51 -0.291626 0.735694 0.0097709 0.00969339 1.09076e-06 0.00973658 1.71451e-07 272.707 
-0.37 -0.53 -0.287343 0.746541 0.00977989 0.00969658 -4.96713e-07 0.00974119 1.71516e-07 272.733 
-0.41 -0.51 -0.294684 0.819885 0.0097636 0.00969796 -4.1858e-07 0.00973388 1.71373e-07 272.756 
-0.35 -0.53 -0.366043 0.748112 0.00977535 0.00970338 9.06692e-06 0.00974222 1.71467e-07 272.84 
-0.39 -0.51 -0.376653 0.856057 0.009772 0.00969306 -1.00492e-06 0.00973446 1.7142e-07 272.698 
-0.37 -0.51 -0.360806 0.718895 0.00977187 0.00969136 3.43662e-06 0.00973157 1.71308e-07 272.795 
-0.35 -0.51 -0.409217 0.842313 0.00977122 0.00969808 1.02242e-05 0.00972967 1.71353e-07 272.669 
-0.49 -0.65 -0.0577777 0.474721 0.00977415 0.0097213 5.85471e-06 0.0097491 1.71494e-07 272.99 
-0.47 -0.65 -0.0790196 0.390225 0.0097705 0.00971487 -8.93607e-07 0.00974752 1.71468e-07 272.987 
-0.45 -0.65 -0.0389972 0.607028 0.00976365 0.00971554 7.12755e-06 0.00974433 1.71564e-07 272.745 
-0.49 -0.63 0.0220056 0.438941 0.00976726 0.00972453 2.19525e-06 0.00975018 1.717e-07 272.693 
-0.43 -0.65 0.00567257 0.595696 0.00975955 0.00970219 5.08951e-06 0.00973816 1.71453e-07 272.748 
-0.47 -0.63 0.0172008 0.487695 0.00976207 0.00970668 2.65248e-06 0.00974017 1.71512e-07 272.71 
-0.41 -0.65 -0.00272866 0.580095 0.00976412 0.00970632 8.85571e-06 0.00973888 1.71472e-07 272.739 
-0.45 -0.63 -0.0290171 0.59112 0.00977097 0.00971762 7.35204e-06 0.00974836 1.71608e-07 272.787 
-0.49 -0.61 -0.013732 0.553525 0.00975694 0.00971206 -4.15344e-06 0.00974093 1.71394e-07 272.921 
-0.39 -0.65 -0.112525 0.453577 0.00976029 0.00971444 8.33375e-06 0.00973854 1.71309e-07 272.988 
-0.43 -0.63 -0.0758052 0.599187 0.00977465 0.00970753 7.12694e-06 0.00974229 1.71325e-07 273.068 
-0.47 -0.61 -0.120851 0.432018 0.00976311 0.00971115 6.99374e-06 0.00974208 1.71423e-07 272.905 
-0.37 -0.65 -0.236642 0.447944 0.00975834 0.00969964 4.15847e-06 0.00972671 1.71115e-07 272.966 
-0.41 -0.63 -0.115344 0.632858 0.00976901 0.00969601 3.02653e-06 0.00973647 1.71369e-07 272.835 
-0.45 -0.61 -0.0856436 0.627529 0.00976266 0.00971013 -3.88046e-06 0.0097386 1.71384e-07 272.871 
-0.49 -0.59 0.0150719 0.495055 0.00977235 0.00970691 -5.96325e-06 0.00974818 1.71618e-07 272.766 
-0.35 -0.65 -0.315508 0.46023 0.00976702 0.00971174 1.15009e-05 0.00973826 1.71398e-07 272.838 
-0.39 -0.63 -0.103936 0.529769 0.00977754 0.00971829 1.24393e-05 0.00974853 1.71539e-07 272.903 
-0.43 -0.61 -0.0164317 0.661191 0.00976951 0.00970956 3.90746e-06 0.00974083 1.71373e-07 272.951 
-0.47 -0.59 0.0916891 0.531203 0.00977914 0.00971114 -5.6718e-06 0.00974731 1.715e-07 272.93 
-0.37 -0.63 -0.221597 0.475393 0.00976733 0.00970095 1.09378e-05 0.00973414 1.71271e-07 272.925 
-0.41 -0.61 -0.131329 0.61795 0.00977151 0.00969922 9.62158e-06 0.00973615 1.71298e-07 272.939 
-0.45 -0.59 0.0498582 0.499615 0.00977914 0.0097112 2.20672e-06 0.00974994 1.71484e-07 273.028 
-0.49 -0.57 -0.0756453 0.467092 0.0097793 0.00971157 -4.00119e-06 0.00974865 1.71513e-07 272.946 
-0.35 -0.63 -0.352065 0.575263 0.00975928 0.00969995 1.2656e-05 0.00973035 1.71257e-07 272.841 
-0.39 -0.61 -0.141187 0.487452 0.00976887 0.00970617 7.61499e-06 0.00973899 1.71358e-07 272.923 
-0.43 -0.59 -0.0651206 0.767891 0.00977117 0.00970156 5.28014e-06 0.00974477 1.7154e-07 272.795 
-0.47 -0.57 -0.121947 0.478525 0.00976974 0.00970519 -5.44919e-06 0.00973565 1.71348e-07 272.846 
-0.37 -0.61 -0.190865 0.659502 0.00977187 0.00970615 1.36713e-05 0.00973956 1.71481e-07 272.743 
-0.41 -0.59 -0.11342 0.660579 0.00977516 0.00969984 4.61681e-06 0.00973689 1.7138e-07 272.828 
-0.45 -0.57 -0.136855 0.651965 0.00976881 0.00970201 2.20464e-06 0.00973748 1.71364e-07 272.87 
-0.49 -0.55 -0.060008 0.618688 0.00975347 0.00970595 -6.9282e-06 0.0097323 1.71286e-07 272.851 
-0.35 -0.61 -0.214871 0.612645 0.0097701 0.00969911 1.27978e-05 0.00973262 1.71344e-07 272.767 
-0.39 -0.59 -0.141024 0.583844 0.00977134 0.00969426 9.48078e-06 0.00973655 1.71338e-07 272.885 
-0.43 -0.57 -0.0297588 0.78226 0.00977299 0.00970066 6.0932e-06 0.00974135 1.714e-07 272.923 
-0.47 -0.55 -0.182203 0.655114 0.00976292 0.00969507 1.69961e-07 0.00973407 1.71418e-07 272.689 
-0.33 -0.61 -0.386997 0.576025 0.00976417 0.00970086 1.8338e-05 0.00973459 1.71268e-07 272.943 
-0.37 -0.59 -0.190502 0.659833 0.00977404 0.00971231 1.9388e-05 0.00974653 1.71513e-07 272.887 
-0.41 -0.57 -0.106827 0.697228 0.00976563 0.0096979 1.15798e-05 0.00973626 1.71261e-07 273.001 
-0.45 -0.55 -0.214722 0.533056 0.00976236 0.00970229 3.06041e-06 0.00973243 1.71294e-07 272.841 
-0.49 -0.53 0.0272333 0.695718 0.00976269 0.00969814 -4.54643e-06 0.00973746 1.71312e-07 272.953 
-0.35 -0.59 -0.356397 0.707644 0.00976495 0.00969323 1.49668e-05 0.00972686 1.71315e-07 272.651 
-0.39 -0.57 -0.236587 0.725113 0.00976632 0.00968832 1.05158e-05 0.00973293 1.71172e-07 273.05 
-0.43 -0.55 -0.223367 0.648279 0.00976059 0.00969389 9.13597e-06 0.00973338 1.71368e-07 272.749 
-0.47 -0.53 -0.0259755 0.625673 0.00975598 0.00969682 -3.13646e-07 0.00972764 1.7123e-07 272.809 
-0.29 -0.57 -0.560601 0.710983 0.00977373 0.00971433 1.82227e-05 0.00974779 1.71466e-07 272.997 
-0.33 -0.55 -0.436711 0.870776 0.00978292 0.00970855 9.34529e-06 0.00974879 1.71459e-07 273.037 
-0.29 -0.61 -0.372289 0.603004 0.00976828 0.00971863 1.11833e-05 0.00974357 1.71572e-07 272.71 
-0.33 -0.59 -0.363515 0.827245 0.00976532 0.00970529 1.38321e-05 0.00973696 1.71318e-07 272.93 
-0.27 -0.61 -0.414892 0.575605 0.0097775 0.00971133 1.41542e-05 0.0097441 1.7154e-07 272.777 
-0.31 -0.59 -0.464447 0.59108 0.00976845 0.00971119 1.15043e-05 0.00973844 1.71387e-07 272.862 
-0.29 -0.59 -0.443875 0.524202 0.00977515 0.00972097 1.06424e-05 0.00974518 1.71527e-07 272.828 
-0.33 -0.57 -0.357462 0.767889 0.00978033 0.00971313 9.05788e-06 0.00974768 1.7139e-07 273.116 
-0.27 -0.59 -0.498938 0.691749 0.00976852 0.0097057 1.34311e-05 0.00973854 1.71466e-07 272.738 
-0.31 -0.57 -0.3786 0.67767 0.00977959 0.00970872 6.03876e-06 0.0097452 1.71489e-07 272.888 
-0.27 -0.57 -0.640332 0.673794 0.00976741 0.00970516 2.32161e-05 0.00974556 1.71521e-07 272.847 
-0.31 -0.55 -0.431803 0.881015 0.0097748 0.00971042 1.83103e-05 0.00974536 1.71441e-07 272.969 
-0.29 -0.55 -0.527842 0.681725 0.00976328 0.00969769 2.11277e-05 0.00973232 1.7121e-07 272.972 
-0.33 -0.53 -0.283407 1.06646 0.00977488 0.00969751 1.30444e-05 0.00973843 1.71336e-07 272.941 
-0.27 -0.55 -0.376046 0.570166 0.00976674 0.00971129 2.0161e-05 0.00974093 1.71406e-07 272.901 
-0.31 -0.53 -0.39266 0.788334 0.00977394 0.00970518 2.28427e-05 0.00974307 1.71513e-07 272.79 
-0.29 -0.53 -0.300904 0.653234 0.0097835 0.00970301 1.88376e-05 0.00974715 1.71484e-07 272.951 
-0.33 -0.51 -0.284751 0.929024 0.00976782 0.00969129 1.66883e-05 0.00973085 1.71152e-07 273.023 
-0.27 -0.53 -0.501482 0.73206 0.00977968 0.00970991 2.22471e-05 0.00974195 1.71476e-07 272.818 
-0.31 -0.51 -0.290044 0.845546 0.00977077 0.00970534 1.71724e-05 0.00973437 1.71339e-07 272.823 
-0.29 -0.51 -0.447765 0.804708 0.00976404 0.00970009 2.30022e-05 0.00973825 1.71446e-07 272.761 
-0.27 -0.51 -0.587677 0.946723 0.00976206 0.0097038 2.70774e-05 0.00973752 1.71369e-07 272.864 
-0.33 -0.65 -0.340453 0.463134 0.00976678 0.00970735 1.78656e-05 0.00973647 1.71308e-07 272.931 
-0.31 -0.65 -0.23713 0.575 0.00976482 0.0097147 1.33698e-05 0.00974108 1.71366e-07 272.969 
-0.29 -0.65 -0.396966 0.528483 0.00975893 0.00970484 1.29482e-05 0.00973419 1.71246e-07 272.967 
-0.33 -0.63 -0.323812 0.485861 0.00976395 0.00971084 9.77461e-06 0.00974026 1.71382e-07 272.92 
-0.27 -0.65 -0.44421 0.506454 0.00976678 0.00972234 1.26903e-05 0.00974512 1.71477e-07 272.905 
-0.31 -0.63 -0.508742 0.664744 0.009762 0.00970631 1.80759e-05 0.00973827 1.71287e-07 273.016 
-0.25 -0.65 -0.573394 0.465119 0.00976221 0.00971526 1.47917e-05 0.00974036 1.71443e-07 272.826 
-0.29 -0.63 -0.53406 0.483938 0.0097672 0.00971712 1.36278e-05 0.00974286 1.71461e-07 272.867 
-0.27 -0.63 -0.497947 0.591942 0.00975687 0.0097141 1.51289e-05 0.00973564 1.71425e-07 272.722 
-0.31 -0.61 -0.438519 0.634498 0.00976885 0.00971134 1.47017e-05 0.00974318 1.71525e-07 272.774 
-0.49 -0.67 0.052368 0.489449 0.00976764 0.00971541 -6.0585e-06 0.00974087 1.71458e-07 272.816 
-0.47 -0.67 0.066962 0.399957 0.00976845 0.00972174 4.05092e-07 0.00974527 1.71496e-07 272.878 
-0.45 -0.67 0.133417 0.536942 0.00976861 0.00971472 4.23167e-06 0.00974655 1.71521e-07 272.876 
-0.43 -0.67 -0.0803785 0.577423 0.00977229 0.00971001 5.09546e-06 0.00974538 1.71597e-07 272.722 