ITEM: TIMESTEP
952500
ITEM: NUMBER OF CELLS
5000
ITEM: BOX BOUNDS ss ss pp
-0.5 0.5
-1 1
-0.5 0.5
ITEM: CELLS xc yc f_U[*] f_V[*] f_Tau[1] f_Tau[2] f_Tau[3] f_Press[*] f_Mrho[*] f_Ttra[*] 
-0.49 -0.99 -0.0702587 0.136204 0.00975667 0.00972639 1.44651e-05 0.00974468 1.71617e-07 272.67 
-0.47 -0.99 -0.165301 -0.0695178 0.0097418 0.00970731 9.77034e-06 0.00973089 1.71425e-07 272.59 
-0.45 -0.99 -0.145077 -0.0144182 0.00974414 0.00972951 1.83648e-06 0.00974307 1.7147e-07 272.859 
-0.49 -0.97 -0.0577021 0.147285 0.00973843 0.00971495 1.2115e-05 0.00972882 1.71313e-07 272.709 
-0.43 -0.99 -0.182508 -0.0258595 0.00973611 0.00973044 4.12481e-06 0.00974229 1.71401e-07 272.947 
-0.47 -0.97 -0.0670592 0.0705453 0.00974594 0.00971511 1.20376e-05 0.00973455 1.71378e-07 272.767 
-0.41 -0.99 -0.0224841 -0.0276178 0.00972933 0.00971959 4.77066e-06 0.00972717 1.71249e-07 272.766 
-0.45 -0.97 -0.119912 -0.033399 0.00974661 0.00973281 4.84529e-06 0.00974515 1.71467e-07 272.922 
-0.49 -0.95 0.079111 0.116592 0.0097367 0.00970399 2.41087e-06 0.00972608 1.71163e-07 272.872 
-0.39 -0.99 -0.083052 0.0561497 0.00973481 0.00972265 -3.71623e-06 0.00972732 1.70984e-07 273.193 
-0.43 -0.97 0.0548298 0.000588262 0.00974793 0.0097304 4.04557e-06 0.00974316 1.71386e-07 272.995 
-0.47 -0.95 0.100479 0.132296 0.00975212 0.0097233 -8.69086e-07 0.00973415 1.71272e-07 272.924 
-0.37 -0.99 -0.1733 0.0261594 0.0097361 0.00973106 8.42988e-06 0.00973819 1.71374e-07 272.874 
-0.41 -0.97 -0.127283 -0.128664 0.00974323 0.00972156 7.52426e-06 0.00973296 1.71214e-07 272.983 
-0.45 -0.95 0.165984 -0.201977 0.00975428 0.00973549 6.90406e-06 0.00974892 1.71533e-07 272.923 
-0.49 -0.93 0.0142107 0.00921546 0.00976766 0.00971869 9.00055e-07 0.00974484 1.71435e-07 272.964 
-0.35 -0.99 -0.0299912 -0.130368 0.00972636 0.00970465 1.12125e-05 0.00971654 1.70923e-07 272.986 
-0.39 -0.97 0.0436168 0.0582786 0.00973242 0.00972005 7.87437e-06 0.00973489 1.71321e-07 272.866 
-0.43 -0.95 0.130581 -0.00579364 0.0097571 0.00972238 1.1513e-05 0.00974397 1.71466e-07 272.89 
-0.47 -0.93 0.120785 0.01189 0.00975666 0.00971659 -8.90034e-07 0.00973673 1.71356e-07 272.863 
-0.33 -0.99 0.0502081 0.00312817 0.00973657 0.00973053 5.97803e-06 0.00973105 1.71192e-07 272.964 
-0.37 -0.97 0.0816847 -0.0324289 0.00973362 0.00972871 1.53206e-06 0.00973839 1.71405e-07 272.832 
-0.41 -0.95 -0.0529407 0.0861813 0.00975343 0.00972673 6.00264e-06 0.00974155 1.71441e-07 272.863 
-0.45 -0.93 0.0191789 0.0828203 0.00975298 0.00972909 5.41464e-06 0.00974197 1.71495e-07 272.789 
-0.49 -0.91 0.0545954 0.0896506 0.00976511 0.00972506 1.20656e-05 0.00974411 1.71264e-07 273.216 
-0.35 -0.97 -0.0170268 -0.0874141 0.00973564 0.00971152 6.32042e-06 0.00972542 1.71111e-07 272.935 
-0.39 -0.95 -0.180976 -0.0533086 0.0097537 0.00972506 5.93963e-06 0.00974124 1.71529e-07 272.714 
-0.43 -0.93 -0.108592 0.0306111 0.00975216 0.00971843 6.32917e-06 0.00972873 1.71166e-07 272.941 
-0.47 -0.91 -0.260321 -0.0476859 0.00975982 0.00971654 4.98063e-06 0.00973837 1.71409e-07 272.824 
-0.33 -0.97 -0.101022 -0.0776712 0.00973822 0.00972584 2.99902e-06 0.00973772 1.71395e-07 272.828 
-0.37 -0.95 -0.134247 -0.0430503 0.00975325 0.00972025 1.18988e-05 0.00974099 1.71357e-07 272.98 
-0.41 -0.93 -0.0930271 0.101869 0.00975606 0.00973025 1.53245e-05 0.0097344 1.71292e-07 272.899 
-0.45 -0.91 -0.0442298 0.0690612 0.00976372 0.00972172 6.05703e-06 0.00974514 1.71483e-07 272.896 
-0.49 -0.89 -0.0924602 0.120268 0.00976177 0.00972381 7.50953e-06 0.00974528 1.71415e-07 273.008 
-0.35 -0.95 -0.126096 -0.0553956 0.00975585 0.00972032 2.79798e-06 0.0097395 1.71418e-07 272.841 
-0.39 -0.93 -0.0394221 -0.139376 0.00975085 0.0097245 7.78969e-06 0.00973791 1.71524e-07 272.629 
-0.43 -0.91 -0.137118 0.0573984 0.00975555 0.00972428 9.80618e-06 0.00973707 1.71168e-07 273.172 
-0.47 -0.89 0.0848391 0.101277 0.00975573 0.00972142 9.79123e-06 0.00974052 1.71466e-07 272.794 
-0.37 -0.93 -0.0170444 0.0190107 0.0097551 0.00972286 1.64558e-08 0.00974338 1.71347e-07 273.064 
-0.41 -0.91 -0.0241205 0.0670454 0.00976404 0.00972084 5.0167e-06 0.00974139 1.71409e-07 272.908 
-0.45 -0.89 -0.231303 0.157506 0.00975307 0.00971397 -8.52978e-07 0.00973836 1.71295e-07 273.006 
-0.49 -0.87 -0.0402182 0.185936 0.00974244 0.00971298 -1.1234e-06 0.00972685 1.71279e-07 272.709 
-0.35 -0.93 -0.291962 0.0516274 0.00975875 0.00972155 3.1071e-06 0.00973427 1.71418e-07 272.695 
-0.39 -0.91 -0.129376 -0.0678073 0.00977181 0.00973261 1.29311e-05 0.00975451 1.71719e-07 272.782 
-0.43 -0.89 -0.229242 0.00555273 0.00976787 0.00973034 3.97495e-06 0.00975159 1.71453e-07 273.125 
-0.47 -0.87 0.0782758 0.138481 0.00975583 0.00972356 3.38103e-06 0.00973726 1.71428e-07 272.764 
-0.37 -0.91 -0.233792 0.132761 0.0097569 0.00973048 5.84009e-06 0.00974346 1.71689e-07 272.522 
-0.41 -0.89 -0.134045 0.0754445 0.0097628 0.00971548 2.64103e-06 0.00974314 1.71492e-07 272.826 
-0.45 -0.87 -0.0942925 0.231409 0.00976062 0.00971553 6.00424e-06 0.00974615 1.71426e-07 273.015 
-0.49 -0.85 -0.00595955 0.181681 0.00975246 0.00971631 -1.76015e-07 0.00973217 1.71268e-07 272.875 
-0.35 -0.91 -0.118682 0.154797 0.00974804 0.00971666 1.35092e-06 0.00973191 1.71323e-07 272.78 
-0.39 -0.89 -0.133415 0.122702 0.00975839 0.0097218 1.28798e-05 0.00974479 1.71512e-07 272.84 
-0.43 -0.87 -0.0639092 -0.00623938 0.00974253 0.0097288 5.75683e-06 0.00974365 1.71434e-07 272.933 
-0.47 -0.85 -0.151929 0.251494 0.00975035 0.00972065 2.24666e-06 0.00974149 1.71394e-07 272.935 
-0.33 -0.91 -0.140444 -0.16305 0.00974969 0.00971442 1.08457e-05 0.00973314 1.71359e-07 272.757 
-0.37 -0.89 -0.236268 0.061179 0.00976759 0.00974376 1.68248e-05 0.0097597 1.71644e-07 273.047 
-0.41 -0.87 -0.189314 0.0944795 0.00974829 0.00971948 5.57834e-06 0.00973708 1.71447e-07 272.727 
-0.45 -0.85 -0.0694293 0.186877 0.00974872 0.00971013 6.76896e-06 0.0097348 1.71337e-07 272.839 
-0.35 -0.89 -0.322619 0.145742 0.00976401 0.00971412 1.22087e-05 0.00973088 1.71261e-07 272.85 
-0.39 -0.87 -0.172617 0.0853455 0.00975791 0.00971749 3.11684e-06 0.00973934 1.71513e-07 272.686 
-0.43 -0.85 -0.132139 0.0693438 0.00976458 0.00973362 1.66434e-06 0.00974591 1.7156e-07 272.795 
-0.37 -0.87 -0.177329 0.19807 0.0097682 0.00973539 9.70146e-06 0.00975137 1.71574e-07 272.926 
-0.41 -0.85 -0.120192 0.104696 0.00976092 0.0097156 5.44743e-06 0.00974336 1.7157e-07 272.708 
-0.35 -0.87 -0.190414 0.146436 0.00976883 0.00971902 1.14108e-05 0.00973953 1.71284e-07 273.056 
-0.39 -0.85 -0.279972 0.327681 0.00976314 0.00972327 -2.92024e-06 0.00974725 1.7157e-07 272.816 
-0.33 -0.87 -0.410659 0.0265811 0.00977167 0.0097244 9.96591e-06 0.00974593 1.71407e-07 273.04 
-0.37 -0.85 -0.380348 0.0456353 0.00976159 0.00972074 4.99201e-06 0.00974235 1.71426e-07 272.909 
-0.35 -0.85 -0.300398 0.199277 0.00976449 0.00972388 1.2651e-05 0.00974148 1.71181e-07 273.274 
-0.33 -0.85 -0.417065 0.362361 0.00975898 0.00972263 1.03306e-05 0.00973647 1.71259e-07 273.01 
-0.31 -0.99 0.0950835 -0.0181327 0.00972885 0.0097081 1.35413e-05 0.0097199 1.71136e-07 272.742 
-0.29 -0.99 -0.0460252 0.177426 0.00973159 0.00972061 1.30438e-05 0.00972799 1.71231e-07 272.816 
-0.27 -0.99 -0.104855 -0.117621 0.00974656 0.00973311 8.26384e-06 0.0097357 1.71114e-07 273.22 
-0.31 -0.97 -0.294677 -0.0589732 0.00974889 0.0097152 5.33553e-06 0.00973626 1.71353e-07 272.854 
-0.29 -0.97 -0.221514 0.254738 0.00975965 0.00971906 1.00888e-05 0.00974684 1.71629e-07 272.711 
-0.33 -0.95 -0.129537 0.11754 0.00975164 0.00972147 5.91836e-06 0.00973616 1.71302e-07 272.932 
-0.27 -0.97 -0.151941 -0.0379338 0.00975206 0.00973026 1.08293e-05 0.00974379 1.71499e-07 272.833 
-0.31 -0.95 -0.203429 0.127953 0.00974789 0.00971697 3.21893e-06 0.00973344 1.71337e-07 272.8 
-0.29 -0.95 -0.097556 -0.0444259 0.00974215 0.00970727 6.99361e-06 0.00972291 1.71256e-07 272.634 
-0.33 -0.93 -0.27991 0.0936528 0.00976159 0.00971959 3.36726e-06 0.0097361 1.71307e-07 272.923 
-0.27 -0.95 -0.217335 0.0798075 0.00974663 0.00973515 7.40838e-06 0.0097403 1.71438e-07 272.832 
-0.31 -0.93 -0.0583817 0.0286324 0.00975719 0.00971295 9.50556e-06 0.00973508 1.71517e-07 272.561 
-0.29 -0.93 -0.234106 0.092919 0.00975682 0.00970926 7.40537e-06 0.00973372 1.71472e-07 272.594 
-0.27 -0.93 -0.12587 0.0698401 0.00976273 0.00973014 7.07139e-06 0.00974936 1.71647e-07 272.753 
-0.31 -0.91 -0.197225 0.229118 0.00975485 0.0097137 6.50513e-06 0.00973766 1.71392e-07 272.832 
-0.29 -0.91 -0.278262 0.0288065 0.00975364 0.00971273 -4.3196e-07 0.00973211 1.71361e-07 272.725 
-0.33 -0.89 -0.30055 -0.109745 0.00975398 0.00972053 5.58386e-06 0.00973613 1.71254e-07 273.008 
-0.27 -0.91 -0.172319 0.00532152 0.00975395 0.00972251 5.14856e-06 0.00973067 1.71455e-07 272.536 
-0.31 -0.89 -0.27481 0.204825 0.00975973 0.00971372 1.44427e-06 0.00974518 1.71551e-07 272.79 
-0.29 -0.89 -0.17037 -0.0557428 0.00975956 0.00971316 4.17071e-06 0.0097409 1.71331e-07 273.02 
-0.27 -0.89 -0.332842 0.175501 0.00975239 0.00971781 1.26919e-05 0.00974348 1.71474e-07 272.865 
-0.31 -0.87 -0.43877 0.0681981 0.00975875 0.00971852 5.17902e-06 0.00973725 1.71411e-07 272.789 
-0.29 -0.87 -0.353351 0.0130569 0.00974838 0.00970522 1.00255e-05 0.00973236 1.71218e-07 272.959 
-0.27 -0.87 -0.370106 0.213773 0.0097477 0.00971837 1.0792e-05 0.00973933 1.71449e-07 272.788 
-0.31 -0.85 -0.458606 -0.13324 0.00975569 0.00971744 2.11588e-05 0.00973829 1.71398e-07 272.839 
-0.29 -0.85 -0.305939 0.0289024 0.00974951 0.00970471 1.31252e-05 0.00974114 1.71414e-07 272.893 
-0.27 -0.85 -0.402763 0.244825 0.00974917 0.00971464 8.74588e-06 0.00973888 1.71192e-07 273.185 
-0.25 -0.99 -0.21777 0.127944 0.0097483 0.00974276 1.38715e-05 0.00974611 1.71412e-07 273.037 
-0.25 -0.97 -0.0839887 0.20259 0.00975166 0.00973768 5.93479e-06 0.00974624 1.71594e-07 272.75 
-0.25 -0.95 -0.328344 0.138125 0.00974425 0.00973869 1.06369e-05 0.00974341 1.71484e-07 272.846 
-0.25 -0.93 -0.00923712 0.11116 0.00976016 0.00973849 1.39187e-05 0.00974619 1.71631e-07 272.69 
-0.25 -0.91 -0.312641 0.0988731 0.00975533 0.00972798 1.27719e-05 0.00974308 1.7153e-07 272.764 
-0.25 -0.89 -0.415535 0.180695 0.00974959 0.00972224 1.22337e-05 0.00973696 1.71319e-07 272.928 
-0.25 -0.87 -0.419966 0.246897 0.00974502 0.00971399 1.83241e-05 0.00973688 1.71264e-07 273.014 
-0.25 -0.85 -0.384452 0.337222 0.00975765 0.00971785 1.02056e-05 0.00974573 1.71305e-07 273.196 
-0.25 -0.83 -0.455182 0.182427 0.00975212 0.0097089 4.75419e-06 0.00974329 1.71295e-07 273.144 
-0.33 -0.81 -0.110218 0.118655 0.00975751 0.00970703 1.20196e-05 0.00972939 1.71284e-07 272.772 
-0.31 -0.81 -0.245673 0.237114 0.00977454 0.00971921 1.50424e-05 0.0097472 1.71325e-07 273.206 
-0.29 -0.81 -0.328691 0.186489 0.00977806 0.00972102 8.77522e-06 0.00975176 1.71345e-07 273.302 
-0.27 -0.81 -0.420747 0.335552 0.00977532 0.00972228 1.10297e-05 0.00975688 1.71513e-07 273.178 
-0.31 -0.79 -0.331254 0.194945 0.00975775 0.00971531 4.30392e-06 0.0097368 1.71398e-07 272.798 
-0.29 -0.79 -0.373579 0.503566 0.00976227 0.00971856 6.29612e-06 0.0097366 1.71416e-07 272.764 
-0.33 -0.77 -0.40835 0.246406 0.00977173 0.00971973 1.25814e-05 0.0097471 1.71412e-07 273.064 
-0.27 -0.79 -0.517353 0.226642 0.00976335 0.00971122 1.64931e-05 0.00973883 1.71426e-07 272.809 
-0.31 -0.77 -0.287717 0.154738 0.00975865 0.00970528 1.11055e-05 0.00973327 1.71325e-07 272.815 
-0.29 -0.77 -0.301934 0.457731 0.00975393 0.00971857 1.01972e-05 0.00973759 1.71543e-07 272.59 
-0.27 -0.77 -0.318478 0.345687 0.00975321 0.00970657 7.69124e-06 0.0097333 1.71307e-07 272.845 
-0.31 -0.75 -0.231826 0.324989 0.00976081 0.00971637 9.54124e-06 0.00974696 1.71528e-07 272.875 
-0.29 -0.75 -0.50813 0.462191 0.00976015 0.0097146 1.51194e-05 0.00974285 1.71471e-07 272.852 
-0.27 -0.75 -0.537168 0.598867 0.00976032 0.00970947 1.50276e-05 0.00973484 1.71263e-07 272.958 
-0.49 -0.83 -0.083448 0.281178 0.00975826 0.00972063 4.17142e-06 0.00973882 1.71482e-07 272.721 
-0.47 -0.83 -0.134558 0.234663 0.00975764 0.00971537 3.62973e-06 0.00973918 1.71685e-07 272.409 
-0.45 -0.83 -0.132456 0.200993 0.00975612 0.00972194 -1.30246e-06 0.00974167 1.7152e-07 272.741 
-0.49 -0.81 0.0213906 0.298854 0.00976101 0.0097217 2.02564e-06 0.00974234 1.71446e-07 272.876 
-0.43 -0.83 -0.120169 0.0703767 0.00974714 0.00971515 2.41371e-06 0.0097325 1.71458e-07 272.583 
-0.47 -0.81 -0.0410121 0.226349 0.00976044 0.00971911 2.09227e-06 0.00974697 1.71507e-07 272.909 
-0.45 -0.81 -0.0187111 0.22039 0.00976658 0.00972165 3.52546e-06 0.00974581 1.71642e-07 272.662 
-0.49 -0.79 -0.0362346 0.419195 0.00975528 0.00972157 3.72833e-06 0.00973742 1.71351e-07 272.891 
-0.43 -0.81 -0.0974242 0.215518 0.00977135 0.00971595 -7.90907e-07 0.00974805 1.71837e-07 272.416 
-0.47 -0.79 -0.0128261 0.10725 0.00975617 0.00971856 -4.51965e-06 0.00974107 1.71399e-07 272.915 
-0.41 -0.81 -0.286308 0.310761 0.00976242 0.00972135 8.40976e-06 0.00974724 1.71534e-07 272.873 
-0.45 -0.79 -0.0303944 0.290929 0.00975815 0.00972271 -2.24031e-06 0.00974034 1.71458e-07 272.801 
-0.49 -0.77 0.0975954 0.256305 0.009752 0.00971928 3.07025e-06 0.00973656 1.71216e-07 273.082 
-0.39 -0.81 -0.299026 0.176275 0.00975147 0.0097207 1.3064e-05 0.00974376 1.71525e-07 272.792 
-0.43 -0.79 -0.303276 0.414714 0.0097622 0.0097089 3.56011e-06 0.00973782 1.71456e-07 272.733 
-0.47 -0.77 -0.00900598 0.321448 0.00975248 0.00972426 -2.42321e-06 0.00973912 1.71368e-07 272.911 
-0.37 -0.81 -0.108176 0.297917 0.00975305 0.00971343 7.47281e-06 0.00973432 1.71505e-07 272.558 
-0.41 -0.79 -0.409862 0.379556 0.00976347 0.0097188 8.99822e-06 0.0097465 1.7168e-07 272.621 
-0.45 -0.77 -0.369258 0.493777 0.00975337 0.00972174 -1.4799e-06 0.00973977 1.71458e-07 272.786 
-0.35 -0.81 -0.029875 0.228572 0.00974434 0.00971362 2.69017e-06 0.00973251 1.71357e-07 272.743 
-0.39 -0.79 -0.296436 0.0855195 0.00976762 0.00972215 7.40945e-06 0.00974811 1.71747e-07 272.56 
-0.43 -0.77 -0.376757 0.504568 0.00974559 0.00970328 2.4825e-06 0.00972536 1.71355e-07 272.546 
-0.37 -0.79 -0.376033 0.246144 0.00976948 0.00971301 7.68918e-06 0.00974533 1.71551e-07 272.793 
-0.41 -0.77 -0.390992 0.184419 0.00975119 0.00971465 5.54892e-06 0.00973701 1.71503e-07 272.637 
-0.35 -0.79 -0.293292 0.125255 0.00976759 0.00971516 1.56924e-05 0.00974344 1.71617e-07 272.636 
-0.39 -0.77 -0.189791 0.15363 0.00974958 0.00972075 8.41378e-06 0.00974563 1.71607e-07 272.713 
-0.43 -0.75 0.0435275 0.296641 0.00976168 0.00971447 -3.07732e-06 0.00974028 1.71464e-07 272.79 
-0.33 -0.79 -0.238138 0.232097 0.00975646 0.00970951 1.81574e-06 0.00972927 1.71388e-07 272.602 
-0.37 -0.77 -0.151299 0.278579 0.00975676 0.00971098 4.56369e-06 0.00973798 1.71466e-07 272.723 
-0.41 -0.75 -0.015099 0.393401 0.00976286 0.00970305 3.07343e-06 0.00974219 1.71596e-07 272.633 
-0.35 -0.77 -0.379369 0.272031 0.00976835 0.00971919 5.91615e-06 0.00974531 1.71382e-07 273.061 
-0.39 -0.75 -0.299709 0.188084 0.00976974 0.0097218 4.48708e-06 0.0097497 1.71583e-07 272.864 
-0.49 -0.75 -0.0755717 0.250859 0.00975134 0.00972421 3.98011e-06 0.00974068 1.71247e-07 273.147 
-0.47 -0.75 -0.0953695 0.436691 0.00975068 0.0097313 2.32177e-06 0.00973735 1.71247e-07 273.055 
-0.45 -0.75 -0.0960481 0.625671 0.00974875 0.00970523 -3.20547e-06 0.00972431 1.71282e-07 272.633 
-0.49 -0.73 -0.0536826 0.44001 0.00977053 0.00972048 6.32261e-06 0.00974751 1.71395e-07 273.102 
-0.47 -0.73 -0.22242 0.377756 0.00976982 0.00974121 3.7797e-06 0.00975352 1.71413e-07 273.242 
-0.45 -0.73 -0.152968 0.408507 0.00976644 0.00971015 -7.43808e-06 0.0097378 1.71465e-07 272.719 
-0.49 -0.71 -0.0947115 0.551564 0.00977332 0.00972049 1.74499e-06 0.00974253 1.71456e-07 272.866 
-0.43 -0.73 -0.0559653 0.388723 0.00975445 0.00970646 -1.08448e-06 0.00973372 1.71385e-07 272.732 
-0.47 -0.71 -0.156886 0.517632 0.00977682 0.00973681 -2.37366e-07 0.00975636 1.7163e-07 272.976 
-0.37 -0.75 -0.231534 0.193534 0.0097575 0.00971355 1.04401e-05 0.00973878 1.71506e-07 272.681 
-0.41 -0.73 -0.0491958 0.410643 0.00975705 0.0097018 -2.65237e-06 0.00973708 1.71582e-07 272.514 
-0.45 -0.71 0.0575606 0.127486 0.00977171 0.00971806 5.78494e-06 0.00974719 1.71589e-07 272.784 
-0.49 -0.69 0.0158269 0.573279 0.00977439 0.00971681 -7.28054e-06 0.00974543 1.71529e-07 272.83 
-0.35 -0.75 -0.0816893 0.286097 0.00975161 0.00971498 6.49843e-06 0.00973602 1.71385e-07 272.797 
-0.39 -0.73 -0.0154884 0.191585 0.00975953 0.00970817 9.58879e-06 0.00973926 1.71353e-07 272.938 
-0.43 -0.71 -0.0764764 0.388597 0.00976841 0.00970831 2.01351e-06 0.00974363 1.71543e-07 272.759 
-0.47 -0.69 0.116945 0.389323 0.00977593 0.00972632 3.61298e-06 0.00975132 1.71525e-07 273.002 
-0.37 -0.73 -0.200769 0.245681 0.00976904 0.00972331 8.88008e-06 0.00974844 1.71595e-07 272.81 
-0.41 -0.71 0.00103092 0.49084 0.00976603 0.00969212 -8.98701e-08 0.00973388 1.71585e-07 272.419 
-0.45 -0.69 -0.103742 0.296559 0.00978506 0.00972204 8.2136e-06 0.00975694 1.71753e-07 272.796 
-0.35 -0.73 -0.443341 0.453318 0.00976523 0.00971227 8.07079e-06 0.00974574 1.71535e-07 272.83 
-0.39 -0.71 -0.125705 0.215766 0.00976849 0.00971162 -1.72054e-06 0.00973867 1.71503e-07 272.683 
-0.43 -0.69 -0.198915 0.474095 0.00978246 0.00971351 4.93568e-06 0.00975615 1.71891e-07 272.556 
-0.33 -0.73 -0.403189 0.102332 0.00976724 0.00970363 1.32186e-05 0.00973766 1.71532e-07 272.608 
-0.37 -0.71 -0.0488964 0.34385 0.00976873 0.00971643 1.32637e-05 0.00974812 1.71599e-07 272.795 
-0.41 -0.69 -0.120614 0.270852 0.0097759 0.00970062 1.06263e-06 0.0097391 1.71627e-07 272.499 
-0.35 -0.71 -0.238042 0.620277 0.00976733 0.00970772 7.24271e-06 0.00975021 1.71661e-07 272.755 
-0.39 -0.69 -0.0538915 0.377975 0.00976305 0.00970129 8.39761e-06 0.0097333 1.7145e-07 272.617 
-0.37 -0.69 -0.290537 0.455274 0.00976437 0.00971015 7.44499e-06 0.00974184 1.71396e-07 272.942 
-0.35 -0.69 -0.315917 0.706019 0.00976935 0.00970889 1.32088e-05 0.00974268 1.71456e-07 272.87 
-0.35 -0.67 -0.175418 0.617422 0.00977498 0.00972051 8.95907e-06 0.00974709 1.71511e-07 272.905 
-0.33 -0.67 -0.20653 0.612726 0.00976258 0.00970381 3.82379e-06 0.00974472 1.7157e-07 272.746 
-0.33 -0.75 -0.107896 0.17722 0.00975128 0.00970757 9.32338e-06 0.00973262 1.71315e-07 272.813 
-0.31 -0.73 -0.439392 0.489822 0.00976539 0.00972191 1.03872e-05 0.00974537 1.71519e-07 272.845 
-0.29 -0.73 -0.306129 0.602994 0.00976851 0.00970333 1.03373e-05 0.00974325 1.71383e-07 273.003 
-0.33 -0.71 -0.54871 0.138476 0.00976479 0.009709 1.43878e-05 0.00974357 1.7157e-07 272.714 
-0.27 -0.73 -0.498221 0.579537 0.0097671 0.00972117 1.48796e-05 0.00975186 1.71414e-07 273.195 
-0.31 -0.71 -0.396396 0.368413 0.00976471 0.00972222 9.91811e-06 0.00974905 1.71603e-07 272.814 
-0.29 -0.71 -0.456008 0.581166 0.00976185 0.00970008 1.3104e-05 0.00973933 1.71269e-07 273.075 
-0.33 -0.69 -0.345776 0.349294 0.00978073 0.00970907 1.11375e-06 0.00975326 1.71841e-07 272.555 
-0.27 -0.71 -0.395765 0.620268 0.00976723 0.00971459 9.96548e-06 0.00974159 1.7126e-07 273.152 
-0.31 -0.69 -0.553145 0.315624 0.00978346 0.00972039 1.08892e-05 0.00976091 1.71764e-07 272.89 
-0.29 -0.69 -0.556064 0.676793 0.00978052 0.00970626 1.21671e-05 0.00974829 1.7151e-07 272.942 
-0.27 -0.69 -0.373414 0.402741 0.00978303 0.00971404 7.72858e-06 0.00974993 1.71299e-07 273.323 
-0.31 -0.67 -0.432439 0.465218 0.00975932 0.0097103 1.0205e-05 0.00974007 1.71501e-07 272.725 
-0.29 -0.67 -0.43863 0.460024 0.00976356 0.00971418 9.79015e-06 0.00974406 1.71425e-07 272.959 
-0.41 -0.83 -0.137746 0.263059 0.00975746 0.00972569 1.433e-06 0.00974348 1.71549e-07 272.744 
-0.39 -0.83 -0.116296 0.337669 0.00975153 0.00972393 1.73765e-06 0.00973491 1.71421e-07 272.708 
-0.37 -0.83 -0.170356 0.295034 0.00974237 0.00971183 4.73606e-06 0.00972934 1.71215e-07 272.88 
-0.35 -0.83 -0.379228 0.107964 0.00975009 0.00971985 1.44081e-05 0.00973171 1.71249e-07 272.893 
-0.33 -0.83 -0.183411 0.305803 0.00974933 0.0097169 1.50761e-05 0.00973194 1.71145e-07 273.065 
-0.31 -0.83 -0.122002 -0.209242 0.00974453 0.00970914 1.55419e-05 0.00973505 1.7135e-07 272.826 
-0.29 -0.83 -0.400113 0.191528 0.00975204 0.00971885 1.92229e-05 0.00974598 1.7127e-07 273.259 
-0.27 -0.83 -0.496378 0.371306 0.00975144 0.00971859 5.34206e-06 0.00974645 1.71264e-07 273.281 
-0.27 -0.67 -0.478986 0.480294 0.00975451 0.00971414 1.42993e-05 0.00974002 1.71313e-07 273.023 
-0.25 -0.67 -0.43848 0.523532 0.00976527 0.00972157 5.80936e-06 0.0097544 1.71514e-07 273.106 
-0.25 -0.81 -0.457881 0.236898 0.0097607 0.00971313 6.07448e-06 0.00974631 1.71463e-07 272.961 
-0.25 -0.79 -0.488209 0.194207 0.00976929 0.00972712 1.91921e-05 0.00975034 1.71462e-07 273.076 
-0.35 -0.55 -0.296386 0.662864 0.00978282 0.00971303 8.02934e-06 0.00974783 1.71497e-07 272.95 
-0.39 -0.53 -0.161116 0.986894 0.00977829 0.0096928 4.95893e-06 0.00974424 1.71493e-07 272.855 
-0.37 -0.57 -0.380154 0.66106 0.009777 0.00970255 6.5342e-06 0.00974614 1.71382e-07 273.085 
-0.41 -0.55 -0.130626 0.994946 0.00976033 0.00970189 3.36078e-06 0.00973554 1.71525e-07 272.56 
-0.45 -0.53 -0.0116592 0.684687 0.00976391 0.00969642 -1.73586e-06 0.00973007 1.71338e-07 272.705 
-0.35 -0.57 -0.301986 0.670768 0.00977966 0.00970626 2.0387e-05 0.00974297 1.71473e-07 272.851 
-0.39 -0.55 -0.161681 0.876351 0.00976228 0.00969385 3.58402e-06 0.00974283 1.71453e-07 272.879 
-0.43 -0.53 -0.167286 0.733555 0.0097726 0.00969364 4.78844e-06 0.0097348 1.71507e-07 272.568 
-0.47 -0.51 -0.133637 0.724275 0.0097665 0.00969822 -3.88534e-06 0.00973198 1.71537e-07 272.443 
-0.37 -0.55 -0.276851 0.719231 0.00976267 0.00968609 6.13007e-06 0.00973241 1.71177e-07 273.026 
-0.41 -0.53 -0.149378 0.844616 0.00977939 0.00970271 -2.92231e-06 0.00974353 1.71534e-07 272.77 
-0.45 -0.51 -0.321146 0.806094 0.00976719 0.00969063 2.04027e-06 0.00973359 1.71464e-07 272.603 
-0.37 -0.53 -0.151398 0.793724 0.0097792 0.00969269 1.811e-06 0.00973978 1.71476e-07 272.757 
-0.41 -0.51 -0.31026 0.816197 0.00975938 0.00969662 1.13635e-07 0.00973305 1.71445e-07 272.618 
-0.35 -0.53 -0.329896 0.780296 0.0097705 0.00970286 1.02339e-05 0.0097374 1.71424e-07 272.773 
-0.39 -0.51 -0.372029 0.94352 0.00976604 0.00969085 1.19896e-06 0.00973339 1.71471e-07 272.587 
-0.37 -0.51 -0.414252 0.947176 0.00976378 0.0096862 8.6279e-06 0.00972676 1.71263e-07 272.732 
-0.35 -0.51 -0.4352 0.811132 0.00976477 0.00969868 1.07472e-05 0.00972882 1.71332e-07 272.679 
-0.49 -0.65 0.121394 0.435101 0.00977176 0.00971682 9.85854e-06 0.00974511 1.71436e-07 272.97 
-0.47 -0.65 -0.0362963 0.448624 0.00976996 0.00972114 3.33638e-06 0.00974934 1.71615e-07 272.804 
-0.45 -0.65 -0.00755174 0.518648 0.00976438 0.00972212 6.48946e-06 0.00974593 1.71686e-07 272.596 
-0.49 -0.63 -0.00253958 0.375614 0.00976036 0.00972171 6.30535e-07 0.00974737 1.71752e-07 272.53 
-0.43 -0.65 0.0582614 0.694692 0.00975656 0.00969566 5.10626e-06 0.00973213 1.71445e-07 272.592 
-0.47 -0.63 0.0263715 0.552471 0.00976382 0.00971488 -8.38295e-07 0.00974324 1.71664e-07 272.554 
-0.41 -0.65 0.0131416 0.446015 0.0097648 0.00970543 9.51908e-06 0.00973839 1.71443e-07 272.77 
-0.45 -0.63 -0.0447875 0.521341 0.00977139 0.00971833 9.54646e-06 0.00974834 1.71655e-07 272.712 
-0.49 -0.61 -0.0644168 0.495882 0.00976761 0.00971754 -8.84606e-06 0.00974817 1.71587e-07 272.816 
-0.39 -0.65 -0.199726 0.375124 0.00976076 0.00971378 5.5261e-06 0.00974423 1.71408e-07 272.991 
-0.43 -0.63 -0.175657 0.660734 0.00977993 0.00970629 6.32907e-06 0.00974007 1.71341e-07 272.98 
-0.47 -0.61 -0.253656 0.549078 0.00976622 0.00971126 3.70464e-06 0.0097432 1.71515e-07 272.79 
-0.37 -0.65 -0.386055 0.620082 0.00976252 0.00969755 -1.29628e-06 0.00973216 1.71281e-07 272.854 
-0.41 -0.63 -0.245404 0.578757 0.0097718 0.00969473 2.21818e-06 0.00973439 1.71411e-07 272.709 
-0.45 -0.61 -0.295626 0.623716 0.00976764 0.00971466 -9.81258e-06 0.00974158 1.71417e-07 272.901 
-0.49 -0.59 -0.122676 0.558112 0.00977639 0.00970583 -6.01174e-06 0.00975 1.71671e-07 272.732 
-0.35 -0.65 -0.394496 0.510454 0.00977354 0.00972124 7.83694e-06 0.00974885 1.71599e-07 272.815 
-0.39 -0.63 -0.229991 0.664649 0.00978297 0.00971725 8.62609e-06 0.00974892 1.71581e-07 272.846 
-0.43 -0.61 -0.14768 0.768935 0.00977914 0.00970119 6.05054e-06 0.00973957 1.71335e-07 272.976 
-0.47 -0.59 -0.00157082 0.656986 0.00978548 0.00971862 -7.52556e-06 0.00975601 1.71689e-07 272.873 
-0.37 -0.63 -0.407631 0.555904 0.0097666 0.0096999 8.90065e-06 0.0097343 1.71394e-07 272.735 
-0.41 -0.61 -0.324076 0.588644 0.00978161 0.0097092 7.8091e-06 0.00974247 1.71426e-07 272.913 
-0.45 -0.59 -0.0374428 0.467676 0.00978616 0.0097139 -2.7291e-06 0.00975362 1.71683e-07 272.816 
-0.49 -0.57 -0.000656865 0.536821 0.00978408 0.0097059 -8.23766e-06 0.00974304 1.71525e-07 272.77 
-0.35 -0.63 -0.412983 0.54567 0.0097601 0.00970799 6.4562e-06 0.00973578 1.71366e-07 272.82 
-0.39 -0.61 -0.231335 0.475264 0.00977762 0.00970125 4.65134e-06 0.00973731 1.71387e-07 272.829 
-0.43 -0.59 -0.0669992 0.850696 0.00977229 0.00969271 2.68452e-06 0.00974198 1.71583e-07 272.649 
-0.47 -0.57 -0.0242148 0.637789 0.00977554 0.00971932 -7.5937e-06 0.00974305 1.71554e-07 272.725 
-0.37 -0.61 -0.127417 0.718767 0.00978108 0.00970661 1.37184e-05 0.00974253 1.71554e-07 272.71 
-0.41 -0.59 0.0196344 0.592054 0.00977753 0.00970575 1.47446e-06 0.00974034 1.71456e-07 272.805 
-0.45 -0.57 -0.029963 0.640736 0.00977115 0.00970143 1.82149e-06 0.00973847 1.71384e-07 272.866 
-0.49 -0.55 -0.00351149 0.545955 0.00976129 0.00970469 -8.87471e-06 0.00973697 1.71476e-07 272.679 
-0.35 -0.61 -0.100514 0.533528 0.0097734 0.00970335 8.07099e-06 0.0097355 1.7135e-07 272.837 
-0.39 -0.59 -0.0836232 0.523917 0.00977313 0.00968726 8.99107e-06 0.00973497 1.71383e-07 272.771 
-0.43 -0.57 0.0699259 0.662178 0.00977515 0.00969399 1.31171e-06 0.00974075 1.71397e-07 272.91 
-0.47 -0.55 -0.0557102 0.80861 0.00977205 0.00970493 -2.60757e-07 0.00974539 1.71674e-07 272.6 
-0.33 -0.61 -0.344453 0.624996 0.00976992 0.00970127 1.59499e-05 0.0097387 1.7129e-07 273.023 
-0.37 -0.59 -0.187315 0.642359 0.00977593 0.00971725 1.79624e-05 0.00974721 1.71539e-07 272.864 
-0.41 -0.57 -0.0929033 0.733584 0.00977013 0.00970148 1.35467e-05 0.00973818 1.71388e-07 272.852 
-0.45 -0.55 -0.156118 0.488574 0.00976541 0.00970025 5.7945e-06 0.0097299 1.71303e-07 272.755 
-0.49 -0.53 -0.0100135 0.573057 0.00976053 0.0096983 -2.67652e-06 0.00973574 1.714e-07 272.765 
-0.35 -0.59 -0.35674 0.698837 0.00977095 0.00969938 1.34823e-05 0.00973069 1.71422e-07 272.589 
-0.39 -0.57 -0.391263 0.822336 0.00977267 0.00968825 4.10657e-06 0.00973948 1.71396e-07 272.876 
-0.43 -0.55 -0.132819 0.615187 0.00976007 0.00968797 6.09316e-06 0.00972943 1.71383e-07 272.616 
-0.47 -0.53 0.00810958 0.652226 0.00975604 0.00969805 -1.18403e-06 0.00972675 1.7133e-07 272.625 
-0.29 -0.57 -0.520269 0.629788 0.00977101 0.0097064 1.93281e-05 0.00974231 1.71375e-07 272.988 
-0.33 -0.55 -0.486305 0.8886 0.00978635 0.0097129 1.20117e-05 0.00975049 1.71598e-07 272.863 
-0.29 -0.61 -0.345977 0.700886 0.00976484 0.00972122 6.6493e-06 0.0097461 1.71622e-07 272.702 
-0.33 -0.59 -0.360312 0.908961 0.00977008 0.00970222 1.2103e-05 0.00973582 1.71197e-07 273.091 
-0.27 -0.61 -0.377638 0.494403 0.00977355 0.00970819 1.35862e-05 0.00974542 1.71603e-07 272.714 
-0.31 -0.59 -0.574527 0.697758 0.00977698 0.00971068 9.82804e-06 0.00974298 1.7147e-07 272.856 
-0.29 -0.59 -0.33047 0.469535 0.00977954 0.00971816 1.379e-05 0.00974682 1.71532e-07 272.864 
-0.33 -0.57 -0.34008 0.900124 0.00977624 0.00971013 8.00542e-06 0.00974236 1.71367e-07 273.003 
-0.27 -0.59 -0.407965 0.630219 0.00976731 0.00969842 1.46427e-05 0.00973413 1.71345e-07 272.808 
-0.31 -0.57 -0.329393 0.682608 0.00977364 0.00970576 3.90248e-06 0.00974078 1.71432e-07 272.855 
-0.27 -0.57 -0.639819 0.676472 0.00976828 0.00970358 2.77994e-05 0.0097484 1.71585e-07 272.825 
-0.31 -0.55 -0.243233 0.895714 0.00976945 0.00970075 2.00759e-05 0.00974235 1.71491e-07 272.805 
-0.29 -0.55 -0.442075 0.645152 0.00975586 0.00969206 2.15342e-05 0.00972718 1.71288e-07 272.703 
-0.33 -0.53 -0.179073 0.940281 0.00976648 0.00969945 1.94662e-05 0.00973486 1.71251e-07 272.978 
-0.27 -0.55 -0.31719 0.621333 0.00975993 0.00971004 1.6976e-05 0.00973112 1.71325e-07 272.755 
-0.31 -0.53 -0.326371 0.764932 0.0097659 0.00970175 2.85011e-05 0.00974474 1.71509e-07 272.843 
-0.29 -0.53 -0.262453 0.671975 0.00978311 0.00970071 1.79438e-05 0.00975061 1.71516e-07 272.997 
-0.33 -0.51 -0.342179 0.71668 0.00976278 0.0096861 2.0969e-05 0.00972841 1.71085e-07 273.061 
-0.27 -0.53 -0.464792 0.850151 0.00977345 0.0097062 2.26989e-05 0.00973772 1.71263e-07 273.038 
-0.31 -0.51 -0.278084 0.861435 0.0097683 0.00970651 1.7282e-05 0.00973341 1.71271e-07 272.905 
-0.29 -0.51 -0.409049 0.809148 0.00975486 0.00969841 2.43908e-05 0.00973404 1.71354e-07 272.791 
-0.27 -0.51 -0.538185 1.15914 0.00975593 0.00970019 3.05349e-05 0.00973291 1.71243e-07 272.935 
-0.33 -0.65 -0.336093 0.473607 0.00977604 0.00970352 1.43628e-05 0.00974355 1.71452e-07 272.901 
-0.31 -0.65 -0.236458 0.712006 0.00977456 0.00971447 1.4488e-05 0.00974873 1.71481e-07 272.999 
-0.29 -0.65 -0.508015 0.555164 0.00976459 0.00970131 1.059e-05 0.00973602 1.71249e-07 273.013 
-0.33 -0.63 -0.333464 0.554658 0.00976009 0.00970888 6.00081e-06 0.00974379 1.71562e-07 272.733 
-0.27 -0.65 -0.538361 0.419501 0.0097761 0.00972272 8.84025e-06 0.00975124 1.71503e-07 273.035 
-0.31 -0.63 -0.530775 0.676699 0.00975887 0.00970074 1.32618e-05 0.00973588 1.71316e-07 272.903 
-0.25 -0.65 -0.535944 0.40957 0.00976648 0.0097178 7.56138e-06 0.00974805 1.716e-07 272.791 
-0.29 -0.63 -0.489899 0.476869 0.00977161 0.00972226 1.39718e-05 0.00974557 1.71555e-07 272.794 
-0.27 -0.63 -0.476992 0.497083 0.00976026 0.009714 1.00262e-05 0.00973715 1.71562e-07 272.547 
-0.31 -0.61 -0.340155 0.591872 0.00977089 0.0097089 1.13326e-05 0.00974715 1.71616e-07 272.741 
-0.49 -0.67 -0.000137495 0.505807 0.00977525 0.00971417 -4.12346e-06 0.00974355 1.71486e-07 272.846 
-0.47 -0.67 0.0419687 0.390458 0.00977123 0.00972275 8.56922e-07 0.00974712 1.71572e-07 272.811 
-0.45 -0.67 0.10049 0.470754 0.00976728 0.00971996 2.48379e-06 0.00974628 1.71566e-07 272.796 