ITEM: TIMESTEP
832500
ITEM: NUMBER OF CELLS
5000
ITEM: BOX BOUNDS ss ss pp
-0.5 0.5
-1 1
-0.5 0.5
ITEM: CELLS xc yc f_U[*] f_V[*] f_Tau[1] f_Tau[2] f_Tau[3] f_Press[*] f_Mrho[*] f_Ttra[*] 
-0.49 -0.99 -0.191231 0.207035 0.00978063 0.00974454 1.68253e-05 0.00977349 1.7189e-07 273.042 
-0.47 -0.99 -0.21888 -0.208869 0.00976264 0.00972471 -1.46737e-06 0.00974735 1.71497e-07 272.936 
-0.45 -0.99 -0.385407 0.065105 0.0097412 0.00973487 1.26581e-05 0.00974234 1.71433e-07 272.897 
-0.49 -0.97 -0.0465831 0.144824 0.00971247 0.00973646 2.6442e-05 0.00972288 1.71078e-07 272.917 
-0.43 -0.99 -0.450676 0.096958 0.00971763 0.00972444 9.93672e-06 0.00973878 1.71198e-07 273.173 
-0.47 -0.97 -0.284957 0.0603041 0.00969726 0.00972222 2.32055e-05 0.00972242 1.71294e-07 272.561 
-0.41 -0.99 -0.336072 -0.0749023 0.00970174 0.00972227 3.60348e-06 0.00972442 1.71106e-07 272.915 
-0.45 -0.97 -0.0440318 0.0439186 0.00970993 0.00973863 7.79439e-06 0.00973028 1.71423e-07 272.576 
-0.49 -0.95 0.266413 -0.00165912 0.00970825 0.00971966 1.99458e-06 0.00972319 1.71149e-07 272.813 
-0.39 -0.99 -0.251523 -0.329498 0.009709 0.00972728 -1.49654e-05 0.00971741 1.70542e-07 273.621 
-0.43 -0.97 -0.14599 0.167393 0.00973189 0.00972815 7.54079e-06 0.00973528 1.71164e-07 273.129 
-0.47 -0.95 0.233128 0.328 0.00973604 0.00973502 1.29443e-05 0.00973398 1.71687e-07 272.26 
-0.37 -0.99 -0.082403 0.168948 0.00971821 0.00971682 1.2627e-05 0.00972068 1.70993e-07 272.992 
-0.41 -0.97 -0.344166 0.0154212 0.00973229 0.00973703 1.23832e-06 0.00974057 1.70959e-07 273.604 
-0.45 -0.95 0.143301 -0.216298 0.00975519 0.00975325 1.63547e-05 0.00976166 1.71904e-07 272.69 
-0.49 -0.93 0.113387 -0.219957 0.0097489 0.00971453 5.86614e-06 0.00973939 1.71377e-07 272.904 
-0.35 -0.99 -0.0985161 -0.128124 0.00969882 0.00966137 7.31403e-06 0.00967805 1.70583e-07 272.448 
-0.39 -0.97 0.00818963 -0.277259 0.00970788 0.00971978 1.54817e-05 0.00972185 1.71144e-07 272.784 
-0.43 -0.95 0.252109 0.395818 0.00974866 0.00972238 4.66308e-06 0.00973585 1.71266e-07 272.981 
-0.47 -0.93 0.309131 0.165875 0.00976435 0.00975346 -1.04373e-06 0.00976377 1.7174e-07 273.009 
-0.33 -0.99 0.0106105 0.174717 0.0096985 0.00970501 1.57938e-05 0.00970497 1.70775e-07 272.899 
-0.37 -0.97 -0.148316 -0.135247 0.00969038 0.00971089 2.32981e-05 0.00969919 1.70774e-07 272.736 
-0.41 -0.95 0.0799784 -0.178214 0.00974982 0.00972449 8.29996e-06 0.0097385 1.71374e-07 272.883 
-0.45 -0.93 0.374697 0.0719604 0.00975165 0.00974432 -1.19133e-05 0.00973287 1.71466e-07 272.58 
-0.49 -0.91 0.0396503 -0.350208 0.00978644 0.00974389 3.67875e-06 0.00976989 1.7125e-07 273.961 
-0.35 -0.97 -0.0965768 -0.171802 0.00969725 0.00967628 4.46871e-06 0.00968696 1.70352e-07 273.068 
-0.39 -0.95 -0.00223356 -0.543469 0.00974685 0.00972319 1.91187e-05 0.00972468 1.71115e-07 272.909 
-0.43 -0.93 0.460951 0.160587 0.00975307 0.00971462 5.95762e-06 0.00971451 1.70855e-07 273.039 
-0.47 -0.91 -0.28877 0.0732239 0.00977237 0.00974148 -5.7676e-06 0.0097512 1.71744e-07 272.651 
-0.33 -0.97 -0.103681 -0.0913846 0.00971207 0.00969348 1.85256e-06 0.00970794 1.71159e-07 272.369 
-0.37 -0.95 -0.100883 0.245098 0.00975883 0.00971038 2.87984e-05 0.00973585 1.71217e-07 273.06 
-0.41 -0.93 0.365454 0.0566826 0.00974887 0.00973051 3.49149e-05 0.00972918 1.71093e-07 273.07 
-0.45 -0.91 -0.137325 -0.119457 0.00977553 0.00974341 1.08182e-05 0.00973766 1.71445e-07 272.747 
-0.49 -0.89 -0.188904 -0.0864472 0.00981231 0.00975908 6.57515e-06 0.00977472 1.71615e-07 273.514 
-0.35 -0.95 -0.105999 -0.141072 0.00975368 0.0096996 4.43282e-06 0.00973154 1.71581e-07 272.36 
-0.39 -0.93 -0.135527 -0.0398897 0.00973316 0.00970777 1.56646e-05 0.00970735 1.70946e-07 272.692 
-0.43 -0.91 -0.0970505 0.0301989 0.00974532 0.00970528 1.34276e-05 0.00971754 1.70803e-07 273.207 
-0.47 -0.89 -0.0674124 0.0645598 0.00979068 0.00974935 1.04044e-05 0.00976117 1.71934e-07 272.628 
-0.37 -0.93 -0.156182 0.0591881 0.0097562 0.00970318 -1.20755e-06 0.00973119 1.71211e-07 272.938 
-0.41 -0.91 -0.370696 0.672216 0.00976466 0.00971654 1.29827e-05 0.0097351 1.71538e-07 272.528 
-0.45 -0.89 -0.301269 -0.179656 0.00977584 0.00971958 3.78616e-06 0.00973735 1.71182e-07 273.157 
-0.49 -0.87 -0.0140386 -0.119865 0.00975254 0.0097314 -1.03697e-06 0.0097327 1.71438e-07 272.619 
-0.35 -0.93 -0.495657 0.299972 0.00977339 0.00971608 1.8107e-05 0.00973296 1.71326e-07 272.805 
-0.39 -0.91 -0.417712 -0.0835071 0.00978723 0.00973115 1.82102e-05 0.00975727 1.71564e-07 273.107 
-0.43 -0.89 -0.479218 0.358475 0.0097918 0.00971935 2.07789e-05 0.00976741 1.71506e-07 273.483 
-0.47 -0.87 0.0158086 0.324248 0.00975092 0.00974875 9.37123e-06 0.00974417 1.71529e-07 272.796 
-0.37 -0.91 -0.219512 0.0993848 0.00975961 0.00970317 9.17954e-06 0.00973467 1.7153e-07 272.528 
-0.41 -0.89 -0.528021 0.782765 0.00978588 0.00970184 4.29693e-06 0.00975304 1.71785e-07 272.637 
-0.45 -0.87 -0.415308 0.108694 0.00976714 0.00970466 8.95777e-06 0.00975341 1.71661e-07 272.844 
-0.49 -0.85 -0.0266318 -0.146705 0.00976832 0.00971753 -4.13353e-06 0.00973685 1.71604e-07 272.472 
-0.35 -0.91 -0.202516 0.47707 0.00975467 0.00971056 -3.34023e-06 0.00972223 1.71135e-07 272.807 
-0.39 -0.89 -0.514198 0.048247 0.00978049 0.00972745 2.39977e-05 0.00976367 1.71672e-07 273.114 
-0.43 -0.87 -0.367925 0.383081 0.00976006 0.00973094 1.73842e-05 0.00975887 1.71756e-07 272.847 
-0.47 -0.85 0.00284025 0.367731 0.00979324 0.00974514 1.59122e-05 0.00977358 1.71798e-07 273.191 
-0.33 -0.91 -0.554084 0.263557 0.00977245 0.00970574 6.50811e-06 0.00972639 1.71375e-07 272.543 
-0.37 -0.89 -0.407407 -0.33386 0.00978172 0.00972343 2.08136e-05 0.00975844 1.7158e-07 273.114 
-0.41 -0.87 -0.35089 0.87715 0.00976461 0.00971632 1.41033e-05 0.00975472 1.71646e-07 272.905 
-0.45 -0.85 -0.111853 0.321788 0.00978549 0.00970916 1.77248e-05 0.00974935 1.71421e-07 273.113 
-0.35 -0.89 -0.438014 0.75146 0.00977857 0.00971371 1.70436e-06 0.009735 1.7154e-07 272.521 
-0.39 -0.87 -0.510392 -0.247705 0.00977671 0.00970744 3.17305e-06 0.00973722 1.71603e-07 272.484 
-0.43 -0.85 -0.299321 0.525309 0.00979123 0.00971775 -1.12922e-06 0.0097397 1.71538e-07 272.656 
-0.37 -0.87 -0.488234 -0.0904688 0.00978318 0.00973842 5.8252e-06 0.00975923 1.71846e-07 272.714 
-0.41 -0.85 -0.308369 1.00625 0.00979384 0.00972055 1.22374e-05 0.00974956 1.71805e-07 272.508 
-0.35 -0.87 -0.0939089 0.423593 0.00978779 0.00971388 1.69918e-05 0.00975685 1.7169e-07 272.895 
-0.39 -0.85 -0.505608 0.174198 0.00977178 0.00972611 5.41302e-06 0.00973851 1.71665e-07 272.421 
-0.33 -0.87 -0.0543127 0.320409 0.00977818 0.00970202 1.20406e-05 0.00973763 1.71342e-07 272.91 
-0.37 -0.85 -1.00606 -0.574887 0.00977665 0.00971814 1.62073e-05 0.00976202 1.7188e-07 272.737 
-0.35 -0.85 -0.621921 0.0831503 0.00976901 0.0097171 1.84487e-05 0.00975174 1.71539e-07 272.991 
-0.33 -0.85 -0.685255 0.720995 0.00976069 0.00970231 2.49265e-05 0.00973396 1.71431e-07 272.665 
-0.31 -0.99 -0.0901584 0.10339 0.00970613 0.009678 7.11367e-06 0.00969361 1.70879e-07 272.413 
-0.29 -0.99 -0.510126 0.323644 0.00971367 0.00969767 -7.51178e-06 0.00970263 1.71064e-07 272.372 
-0.27 -0.99 -0.324378 -0.39223 0.00975324 0.00973574 3.24042e-06 0.00974216 1.71473e-07 272.829 
-0.31 -0.97 -0.42673 0.424456 0.00973625 0.00970427 -1.05151e-05 0.00972912 1.71575e-07 272.302 
-0.29 -0.97 -0.241409 0.1867 0.00974399 0.0097012 4.0296e-06 0.00973284 1.71334e-07 272.788 
-0.33 -0.95 -0.209795 0.0575535 0.00974869 0.0096981 -6.97262e-06 0.00972174 1.71262e-07 272.593 
-0.27 -0.97 0.20862 -0.360419 0.0097202 0.00970899 -1.62168e-06 0.0097207 1.71585e-07 272.051 
-0.31 -0.95 -0.171788 0.584742 0.00973939 0.00969383 1.69769e-07 0.00971358 1.71522e-07 271.95 
-0.29 -0.95 -0.0576663 -0.274348 0.00974234 0.00969015 -5.41532e-07 0.0097193 1.71724e-07 271.79 
-0.33 -0.93 -0.501744 0.0303976 0.00976874 0.00970178 1.95499e-06 0.00973223 1.71439e-07 272.605 
-0.27 -0.95 -0.458838 -0.195094 0.00974689 0.009733 2.93688e-06 0.00973527 1.71686e-07 272.297 
-0.31 -0.93 -0.569331 0.155219 0.00975935 0.00969744 -7.91952e-07 0.00971971 1.71345e-07 272.403 
-0.29 -0.93 -0.704938 0.0488621 0.00975416 0.00968882 4.07748e-08 0.0097273 1.71922e-07 271.701 
-0.27 -0.93 -0.246459 -0.331068 0.00978535 0.00974131 -1.00918e-05 0.00977524 1.72256e-07 272.51 
-0.31 -0.91 -0.331738 0.244403 0.00977022 0.00969489 1.6744e-05 0.00973672 1.71632e-07 272.424 
-0.29 -0.91 -0.205201 -0.274991 0.00975021 0.00971064 -1.55001e-05 0.00972363 1.71411e-07 272.408 
-0.33 -0.89 -0.439139 0.0299711 0.00976295 0.00970369 -2.23875e-06 0.00973273 1.71232e-07 272.949 
-0.27 -0.91 -0.746356 -0.183213 0.00973491 0.00971399 -1.16007e-05 0.00972396 1.71509e-07 272.262 
-0.31 -0.89 -0.274645 -0.0639916 0.00977919 0.00968243 4.42136e-07 0.0097347 1.71545e-07 272.505 
-0.29 -0.89 -0.111924 -0.118059 0.00979903 0.00974206 -2.90559e-06 0.00976539 1.7163e-07 273.229 
-0.27 -0.89 -0.369568 0.214565 0.00977708 0.00970127 -7.92682e-06 0.0097453 1.71698e-07 272.559 
-0.31 -0.87 -0.447813 -0.122488 0.00974535 0.00969656 -4.77398e-06 0.00972264 1.71258e-07 272.623 
-0.29 -0.87 -0.604914 -0.118796 0.00973382 0.00973251 -4.74583e-07 0.00973856 1.71495e-07 272.692 
-0.27 -0.87 -0.435074 0.588387 0.00974119 0.00970512 8.17103e-07 0.00972134 1.71312e-07 272.502 
-0.31 -0.85 -0.536621 -0.0888573 0.00976824 0.00971316 6.98549e-06 0.00973886 1.71821e-07 272.184 
-0.29 -0.85 -0.553577 0.158485 0.00975605 0.00972804 1.24707e-05 0.00975084 1.71802e-07 272.549 
-0.27 -0.85 -0.525528 0.486859 0.00974465 0.00970615 -9.97503e-08 0.00973477 1.70898e-07 273.538 
-0.25 -0.99 -0.2201 0.0728083 0.00975609 0.00976225 1.30837e-05 0.00976018 1.71973e-07 272.539 
-0.25 -0.97 -0.119482 0.32315 0.00974017 0.00976226 -5.71975e-06 0.00975019 1.71518e-07 272.982 
-0.25 -0.95 -0.338889 0.452731 0.00973613 0.00974603 -5.80549e-06 0.00974676 1.7159e-07 272.77 
-0.25 -0.93 -0.464711 0.249206 0.00977082 0.00972961 5.98519e-06 0.00974192 1.71578e-07 272.656 
-0.25 -0.91 -0.250502 0.173915 0.00974459 0.00972158 5.03661e-06 0.00973451 1.71425e-07 272.691 
-0.25 -0.89 -0.717704 0.0227415 0.00977659 0.00971625 1.61074e-07 0.00974578 1.71424e-07 273.007 
-0.25 -0.87 -1.02588 0.143104 0.00972939 0.00969967 4.01667e-06 0.00971882 1.70941e-07 273.022 
-0.25 -0.85 -0.101349 0.410442 0.00975513 0.00970184 -1.03409e-05 0.00974042 1.71212e-07 273.196 
-0.25 -0.83 -0.177357 -0.00324074 0.00976909 0.00969407 -2.6464e-06 0.00974879 1.71166e-07 273.505 
-0.33 -0.81 0.229894 0.153775 0.00978869 0.00970423 9.2111e-06 0.00973839 1.71486e-07 272.702 
-0.31 -0.81 0.0330077 0.237006 0.00980654 0.00972507 6.08199e-06 0.00976315 1.71445e-07 273.461 
-0.29 -0.81 0.00167009 -0.289882 0.0097934 0.00972172 -5.67028e-06 0.00976195 1.71609e-07 273.167 
-0.27 -0.81 0.104184 0.456803 0.00979449 0.00972862 1.13242e-05 0.00976788 1.71608e-07 273.334 
-0.31 -0.79 0.285228 0.42548 0.00978004 0.00973589 4.29322e-06 0.00974614 1.71633e-07 272.686 
-0.29 -0.79 -0.113326 0.078558 0.00977652 0.00971503 -1.84039e-06 0.00972642 1.71313e-07 272.643 
-0.33 -0.77 0.028744 0.12787 0.0097633 0.00972848 1.81562e-05 0.00973404 1.71425e-07 272.677 
-0.27 -0.79 -0.553418 0.443353 0.0097574 0.00968853 6.54726e-06 0.00972151 1.71022e-07 272.968 
-0.31 -0.77 0.0241821 0.439291 0.00975182 0.00971977 2.63609e-07 0.00973255 1.71509e-07 272.502 
-0.29 -0.77 -0.164612 0.823522 0.00976355 0.00971564 1.44969e-05 0.00973599 1.71615e-07 272.43 
-0.27 -0.77 -0.51702 0.576894 0.00977056 0.00969086 1.16979e-05 0.00973924 1.71522e-07 272.669 
-0.31 -0.75 -0.0252033 0.835533 0.0097606 0.00972192 -1.54341e-07 0.0097582 1.71965e-07 272.495 
-0.29 -0.75 -0.651867 1.14 0.0097586 0.00971913 1.45469e-05 0.00973393 1.71461e-07 272.617 
-0.27 -0.75 -0.756495 0.801182 0.0097663 0.00969019 1.45058e-05 0.00972553 1.71347e-07 272.563 
-0.49 -0.83 -0.189417 -0.040445 0.00975595 0.00971813 9.56284e-07 0.00975221 1.7158e-07 272.94 
-0.47 -0.83 -0.0380178 0.319307 0.00975679 0.0097199 -1.09286e-05 0.00974352 1.71516e-07 272.799 
-0.45 -0.83 0.222343 0.272764 0.00976111 0.00972695 6.0335e-06 0.00975315 1.71342e-07 273.344 
-0.49 -0.81 0.0932874 -0.1701 0.0097737 0.0097296 -4.77071e-06 0.00976862 1.7179e-07 273.064 
-0.43 -0.83 0.0523638 0.772144 0.0097412 0.00969132 1.22307e-05 0.00971432 1.71115e-07 272.618 
-0.47 -0.81 0.0157726 0.134945 0.00975651 0.00971689 -2.50526e-06 0.00976209 1.71707e-07 273.014 
-0.45 -0.81 0.0498614 0.435049 0.00976745 0.00970818 1.48046e-05 0.00974495 1.71694e-07 272.556 
-0.49 -0.79 -0.21129 0.136364 0.00974678 0.00972427 4.78385e-06 0.00974135 1.7166e-07 272.509 
-0.43 -0.81 -0.207738 0.831474 0.00980204 0.00971468 4.48465e-06 0.00975232 1.71593e-07 272.922 
-0.47 -0.79 -0.15753 0.0657844 0.00975147 0.00972027 2.87931e-09 0.00973776 1.71525e-07 272.623 
-0.41 -0.81 -0.340154 1.05381 0.00976436 0.00970015 1.71986e-05 0.00973787 1.71618e-07 272.477 
-0.45 -0.79 -0.619053 0.721402 0.00973019 0.00970633 -6.65493e-06 0.00971305 1.71376e-07 272.167 
-0.49 -0.77 0.152189 0.0874457 0.00973695 0.00973268 9.32308e-06 0.00972677 1.71192e-07 272.845 
-0.39 -0.81 -0.140074 0.427597 0.00975312 0.00970736 2.04763e-05 0.00975362 1.7188e-07 272.502 
-0.43 -0.79 -0.598182 0.908886 0.00974523 0.00970593 5.91667e-06 0.00972525 1.71348e-07 272.553 
-0.47 -0.77 -0.33651 0.579348 0.0097314 0.00970756 3.60822e-06 0.00970948 1.71028e-07 272.621 
-0.37 -0.81 0.503728 -0.186973 0.00976949 0.00973489 7.32725e-06 0.00974693 1.71793e-07 272.453 
-0.41 -0.79 -0.417439 0.531977 0.00977646 0.00969935 1.29769e-05 0.00974434 1.71895e-07 272.219 
-0.45 -0.77 -0.878763 1.45083 0.00975804 0.00973282 -6.03992e-06 0.00974088 1.71789e-07 272.291 
-0.35 -0.81 0.226552 0.28082 0.00977356 0.00971288 2.56342e-06 0.00975505 1.71704e-07 272.822 
-0.39 -0.79 0.218112 -0.0767401 0.00977727 0.00971204 3.53504e-06 0.00974356 1.71756e-07 272.418 
-0.43 -0.77 -0.957072 0.442511 0.00973128 0.0096828 -9.72425e-06 0.00969945 1.71121e-07 272.191 
-0.37 -0.79 -0.0909919 -0.104683 0.00980315 0.00974467 1.57902e-05 0.00976167 1.72e-07 272.537 
-0.41 -0.77 -0.364193 0.0403676 0.00972652 0.00969689 8.87299e-06 0.00971327 1.71489e-07 271.993 
-0.35 -0.79 0.12922 0.43371 0.00978483 0.00970879 1.22083e-05 0.00974701 1.71706e-07 272.593 
-0.39 -0.77 -0.279343 -0.13794 0.00974631 0.00973264 9.01345e-07 0.00975592 1.71796e-07 272.7 
-0.43 -0.75 0.189032 0.577654 0.00975183 0.00968952 6.99406e-06 0.00972519 1.71294e-07 272.639 
-0.33 -0.79 0.221993 0.172823 0.00977031 0.00970438 3.7448e-06 0.00972756 1.71492e-07 272.389 
-0.37 -0.77 0.250031 -0.0996117 0.00974072 0.00971508 -2.41004e-06 0.00972417 1.71245e-07 272.687 
-0.41 -0.75 -0.0685938 0.070434 0.00975449 0.00971114 3.65213e-07 0.00973255 1.71374e-07 272.716 
-0.35 -0.77 0.281926 0.388891 0.00976018 0.00971727 7.07358e-06 0.00973521 1.70922e-07 273.512 
-0.39 -0.75 -0.13792 -0.11389 0.00975159 0.0097075 -3.7091e-06 0.00974352 1.71603e-07 272.66 
-0.49 -0.75 -0.175057 0.246343 0.00973324 0.00973219 2.04521e-06 0.00973709 1.70819e-07 273.73 
-0.47 -0.75 -0.302001 0.849859 0.00974736 0.00973067 -7.96362e-06 0.00972639 1.71081e-07 273.011 
-0.45 -0.75 0.029506 1.08919 0.00974584 0.00970372 -6.3453e-06 0.00971907 1.71306e-07 272.448 
-0.49 -0.73 -0.0979794 0.444925 0.00976994 0.00972651 2.88765e-06 0.0097563 1.71126e-07 273.778 
-0.47 -0.73 -0.306534 1.04577 0.00976967 0.00975366 -5.14974e-06 0.00976893 1.7136e-07 273.758 
-0.45 -0.73 -0.173957 0.365703 0.0097722 0.00969694 -1.65979e-05 0.00973231 1.71474e-07 272.551 
-0.49 -0.71 -0.132542 0.579614 0.00983479 0.00975611 8.49907e-06 0.00980342 1.72133e-07 273.491 
-0.43 -0.73 0.461497 0.541521 0.00976732 0.00969514 -6.12281e-06 0.00973423 1.71279e-07 272.915 
-0.47 -0.71 0.0324418 0.6617 0.00981861 0.00975077 -8.64281e-06 0.00977982 1.71689e-07 273.538 
-0.37 -0.75 -0.390105 -0.402137 0.00974289 0.00972902 1.4776e-05 0.00971706 1.71465e-07 272.139 
-0.41 -0.73 0.467862 0.332815 0.00977183 0.00970063 -6.87845e-06 0.00973603 1.71218e-07 273.063 
-0.45 -0.71 0.493307 0.182383 0.00978455 0.00969421 1.3109e-06 0.00974615 1.71669e-07 272.629 
-0.49 -0.69 -0.132909 0.621143 0.00976383 0.0097274 -1.01051e-05 0.00974872 1.71349e-07 273.21 
-0.35 -0.75 -0.163002 0.140986 0.00974888 0.00972803 8.49498e-06 0.00973481 1.71343e-07 272.83 
-0.39 -0.73 0.402007 -0.4116 0.00977491 0.0096948 1.3037e-05 0.00973331 1.71165e-07 273.07 
-0.43 -0.71 0.0308623 0.0581894 0.00976931 0.00969947 -4.09717e-06 0.00973373 1.71649e-07 272.312 
-0.47 -0.69 0.252289 0.119276 0.00977092 0.00973721 2.25226e-05 0.00975926 1.71514e-07 273.243 
-0.37 -0.73 0.396021 -0.108505 0.00978366 0.00972456 1.11255e-05 0.00973946 1.71737e-07 272.334 
-0.41 -0.71 0.645167 0.656575 0.00977889 0.0096837 -4.7456e-06 0.00974714 1.7178e-07 272.48 
-0.45 -0.69 0.131605 0.465242 0.00978664 0.00970928 8.32345e-06 0.00975718 1.71846e-07 272.655 
-0.35 -0.73 -0.191825 0.206235 0.00977283 0.00972417 1.18259e-05 0.00975593 1.7167e-07 272.9 
-0.39 -0.71 0.171026 0.085211 0.00978261 0.00970974 1.62444e-06 0.00974882 1.71717e-07 272.627 
-0.43 -0.69 0.0855733 0.235079 0.00980076 0.00971798 -1.93389e-06 0.00976356 1.72361e-07 272.019 
-0.33 -0.73 -0.193483 -0.0374056 0.00977411 0.00972716 1.22554e-05 0.00976715 1.72123e-07 272.496 
-0.37 -0.71 -0.196455 -0.100647 0.00976591 0.00971496 7.50298e-06 0.0097448 1.71644e-07 272.631 
-0.41 -0.69 0.0701478 0.0597579 0.00977466 0.0096816 -4.07295e-06 0.00973049 1.71602e-07 272.297 
-0.35 -0.71 -0.519247 0.427748 0.00975671 0.00972007 5.66987e-06 0.00975331 1.71695e-07 272.788 
-0.39 -0.69 0.106366 0.405699 0.00976036 0.00969672 1.04359e-05 0.00972984 1.71673e-07 272.166 
-0.37 -0.69 -0.0611492 0.216994 0.00977722 0.00971208 9.4244e-06 0.00975637 1.71686e-07 272.887 
-0.35 -0.69 0.332655 0.431158 0.00977842 0.00972352 1.30197e-05 0.00974244 1.71362e-07 273.014 
-0.35 -0.67 -0.0895568 0.232216 0.00978422 0.00975385 4.80258e-06 0.00975682 1.71478e-07 273.232 
-0.33 -0.67 -0.0746604 0.451737 0.00975674 0.00971696 1.88665e-06 0.00974881 1.71593e-07 272.824 
-0.33 -0.75 0.369909 0.191384 0.00975715 0.00971807 1.6055e-06 0.0097491 1.72024e-07 272.148 
-0.31 -0.73 -0.291811 1.17388 0.00978223 0.00972952 -6.43624e-06 0.00975669 1.71886e-07 272.578 
-0.29 -0.73 0.150312 1.18045 0.0097672 0.00970379 5.40173e-06 0.00973857 1.71316e-07 272.979 
-0.33 -0.71 -0.692444 -0.103055 0.00976419 0.00973521 2.29947e-06 0.00974753 1.71633e-07 272.724 
-0.27 -0.73 -0.107032 1.06877 0.00975657 0.00970275 2.12733e-05 0.00973953 1.7116e-07 273.253 
-0.31 -0.71 -0.177987 0.800044 0.00975449 0.00972727 1.94959e-05 0.00976203 1.72001e-07 272.546 
-0.29 -0.71 -0.0115598 0.895235 0.00974799 0.00968304 1.19482e-05 0.00973024 1.71358e-07 272.677 
-0.33 -0.69 -0.0208159 0.0671229 0.00977874 0.00972947 -1.43969e-05 0.00976523 1.71888e-07 272.815 
-0.27 -0.71 0.513739 1.07604 0.00978219 0.00970394 -4.62715e-07 0.00974913 1.71473e-07 273.023 
-0.31 -0.69 -0.39456 0.470848 0.00977626 0.00971045 1.7563e-05 0.00974977 1.71794e-07 272.532 
-0.29 -0.69 -0.250261 0.684142 0.00977513 0.0097142 1.02297e-05 0.00975447 1.71826e-07 272.613 
-0.27 -0.69 -0.274803 1.12722 0.00975367 0.00969191 7.96724e-06 0.00973372 1.71114e-07 273.165 
-0.31 -0.67 -0.168366 0.755931 0.00976102 0.00968734 4.01157e-06 0.0097269 1.71384e-07 272.543 
-0.29 -0.67 -0.494874 0.620227 0.00977364 0.00972451 1.83039e-05 0.00976035 1.71661e-07 273.038 
-0.41 -0.83 0.0754247 0.853036 0.00976459 0.00972799 2.53172e-06 0.00974672 1.71786e-07 272.459 
-0.39 -0.83 -0.0127706 0.77557 0.0097693 0.0097218 2.85581e-05 0.00974186 1.7177e-07 272.349 
-0.37 -0.83 -0.283236 -0.0364975 0.00973946 0.00971608 1.83958e-05 0.00973789 1.71685e-07 272.373 
-0.35 -0.83 -0.503257 -0.10828 0.00975776 0.00971144 1.88205e-05 0.00973345 1.71479e-07 272.576 
-0.33 -0.83 -0.30466 0.50047 0.00977534 0.00970929 5.5038e-06 0.00974197 1.71313e-07 273.078 
-0.31 -0.83 0.0667803 -0.309593 0.00976956 0.00969753 1.28489e-05 0.00974639 1.71511e-07 272.887 
-0.29 -0.83 -0.0193972 -0.0301398 0.00978271 0.00974109 6.29632e-06 0.00977771 1.71744e-07 273.392 
-0.27 -0.83 -0.15391 0.360977 0.00978665 0.00972151 7.56994e-06 0.00976394 1.71526e-07 273.354 
-0.27 -0.67 -0.613676 0.735961 0.00976528 0.00969493 1.89616e-05 0.00974717 1.71481e-07 272.956 
-0.25 -0.67 -0.287305 0.606096 0.00978122 0.00969576 3.72288e-06 0.00974883 1.71638e-07 272.753 
-0.25 -0.81 -0.14441 0.261364 0.00977807 0.00970796 1.85439e-05 0.00975551 1.71424e-07 273.281 
-0.25 -0.79 -0.713948 0.263604 0.00979114 0.00972905 1.9836e-05 0.00975546 1.71342e-07 273.41 
-0.35 -0.55 0.0745366 0.62551 0.00979855 0.00971801 1.71916e-05 0.00975513 1.71591e-07 273.004 
-0.39 -0.53 -0.0960035 1.09694 0.00978805 0.00970373 9.56875e-06 0.00975621 1.71521e-07 273.146 
-0.37 -0.57 -0.0289381 0.982344 0.00978764 0.00971239 7.0634e-06 0.00974957 1.71317e-07 273.285 
-0.41 -0.55 0.219169 0.996966 0.0097579 0.00971772 -1.22201e-05 0.00974866 1.71649e-07 272.73 
-0.45 -0.53 0.058301 0.407061 0.00978025 0.00969073 -7.06308e-06 0.00972831 1.71321e-07 272.683 
-0.35 -0.57 -0.0659213 0.657434 0.00976456 0.00969239 2.90777e-05 0.00973117 1.71298e-07 272.8 
-0.39 -0.55 -0.178511 1.04119 0.00976433 0.00970636 1.22747e-05 0.00975491 1.71576e-07 273.021 
-0.43 -0.53 -0.342902 0.478946 0.00978638 0.0096997 2.2826e-06 0.00974053 1.7135e-07 272.979 
-0.47 -0.51 -0.412808 0.341619 0.00978258 0.00969524 5.27552e-06 0.00973179 1.71458e-07 272.562 
-0.37 -0.55 0.0903802 0.993925 0.00975633 0.00968022 -1.58067e-06 0.00972373 1.71036e-07 273.008 
-0.41 -0.53 -0.436438 0.523443 0.00979023 0.00971227 4.02739e-06 0.00974519 1.71391e-07 273.044 
-0.45 -0.51 -0.375491 0.339667 0.00978999 0.00969624 5.68917e-06 0.00974588 1.71677e-07 272.608 
-0.37 -0.53 0.0395342 0.992556 0.00977382 0.00970132 1.10831e-05 0.00975178 1.71737e-07 272.679 
-0.41 -0.51 -0.476494 0.594264 0.00978101 0.00970887 3.69009e-06 0.00974113 1.7135e-07 272.996 
-0.35 -0.53 -0.114619 0.807522 0.00974281 0.00969421 -9.35544e-06 0.00971651 1.71375e-07 272.265 
-0.39 -0.51 -0.454347 0.850793 0.00976639 0.00968872 4.83928e-06 0.009722 1.7114e-07 272.793 
-0.37 -0.51 -0.497298 0.978925 0.0097892 0.00970002 1.78452e-05 0.009745 1.71665e-07 272.603 
-0.35 -0.51 -0.595537 0.717839 0.00978859 0.00970051 6.06012e-06 0.00974451 1.71594e-07 272.701 
-0.49 -0.65 0.0899766 0.389046 0.00977687 0.0097057 1.62568e-05 0.00974196 1.71464e-07 272.837 
-0.47 -0.65 -0.109891 0.40988 0.00978276 0.00974096 1.63972e-05 0.00976619 1.71941e-07 272.757 
-0.45 -0.65 -0.0426624 0.37011 0.00977392 0.0097497 4.93072e-06 0.00976607 1.72269e-07 272.234 
-0.49 -0.63 -0.0235273 0.239178 0.00975263 0.00970352 1.55917e-05 0.00974841 1.71826e-07 272.443 
-0.43 -0.65 -0.0900858 0.573085 0.00974061 0.00967613 1.14712e-05 0.00972206 1.71253e-07 272.615 
-0.47 -0.63 0.0755072 0.542074 0.00977311 0.00974236 2.61665e-06 0.00977323 1.72303e-07 272.38 
-0.41 -0.65 0.0752148 0.421784 0.00975083 0.00968987 3.56252e-06 0.00972445 1.7113e-07 272.879 
-0.45 -0.63 -0.509472 0.546343 0.00979521 0.00974169 2.88059e-05 0.00976893 1.72285e-07 272.29 
-0.49 -0.61 -0.21736 0.404053 0.00978802 0.00970831 -1.1688e-05 0.00975987 1.72025e-07 272.447 
-0.39 -0.65 0.266601 0.216861 0.00974715 0.00971421 9.37499e-06 0.00972604 1.71237e-07 272.752 
-0.43 -0.63 -0.509396 0.61356 0.00977857 0.00969346 6.03152e-06 0.00973828 1.71311e-07 272.977 
-0.47 -0.61 -0.398705 0.450183 0.00978525 0.00973326 1.66372e-06 0.00977909 1.72214e-07 272.685 
-0.37 -0.65 -0.429921 0.0117305 0.00974876 0.00968899 -9.93009e-06 0.00971174 1.70968e-07 272.781 
-0.41 -0.63 -0.802358 0.187587 0.00977333 0.00968193 9.3489e-06 0.00973066 1.7117e-07 272.989 
-0.45 -0.61 0.0509161 0.732635 0.0097826 0.00973263 -6.46213e-07 0.0097737 1.72217e-07 272.529 
-0.49 -0.59 -0.0946269 0.442517 0.00976775 0.00968144 -2.75303e-05 0.00973857 1.71583e-07 272.553 
-0.35 -0.65 -0.664014 0.352786 0.00976405 0.00975224 1.26907e-05 0.00974166 1.71513e-07 272.751 
-0.39 -0.63 -0.736593 0.397016 0.00978066 0.00972594 3.03257e-06 0.00973195 1.7134e-07 272.754 
-0.43 -0.61 0.0867991 0.837929 0.00981042 0.0097043 2.54928e-05 0.009777 1.71759e-07 273.348 
-0.47 -0.59 -0.266169 0.633053 0.00979718 0.00972921 -1.19586e-05 0.00978014 1.71991e-07 273.067 
-0.37 -0.63 -0.724288 0.585956 0.00976803 0.00969403 -2.70916e-06 0.00972352 1.71395e-07 272.43 
-0.41 -0.61 -0.278148 0.60599 0.00980968 0.00970786 8.0045e-06 0.00976121 1.7151e-07 273.302 
-0.45 -0.59 -0.233018 0.0870668 0.00980779 0.0097222 6.2223e-06 0.00978165 1.72097e-07 272.941 
-0.49 -0.57 0.29134 0.423481 0.00978721 0.00969889 -1.86254e-05 0.00973268 1.71161e-07 273.06 
-0.35 -0.63 -0.980467 0.324626 0.0097505 0.00971164 5.76185e-06 0.00972005 1.71227e-07 272.6 
-0.39 -0.61 -0.501505 0.0460056 0.00981186 0.00970733 -1.55578e-06 0.00975446 1.71638e-07 272.911 
-0.43 -0.59 0.328721 0.743775 0.00979757 0.00970292 6.18354e-06 0.00975645 1.7192e-07 272.518 
-0.47 -0.57 0.110444 0.576917 0.00977089 0.00970668 -1.48207e-05 0.0097373 1.71473e-07 272.693 
-0.37 -0.61 -0.518581 0.601003 0.00980796 0.00970197 1.8974e-05 0.00975667 1.71534e-07 273.138 
-0.41 -0.59 0.349642 0.782346 0.00979566 0.00971515 6.00093e-06 0.00976049 1.71517e-07 273.271 
-0.45 -0.57 0.0893596 0.0724342 0.00976479 0.00969897 -8.83957e-07 0.00973663 1.71532e-07 272.58 
-0.49 -0.55 -0.233555 0.234761 0.00978164 0.00971583 -7.36276e-06 0.0097474 1.71735e-07 272.558 
-0.35 -0.61 -0.447709 0.658038 0.00980131 0.00970198 1.32445e-05 0.00973897 1.7119e-07 273.191 
-0.39 -0.59 0.100477 0.683404 0.00978506 0.00966703 1.32157e-05 0.0097325 1.71229e-07 272.946 
-0.43 -0.57 0.0421164 0.424571 0.00978076 0.00969799 4.77998e-06 0.00974992 1.71228e-07 273.437 
-0.47 -0.55 -0.00206327 0.727534 0.00976656 0.00968451 -1.428e-05 0.00972122 1.71709e-07 271.869 
-0.33 -0.61 -0.829452 0.434496 0.00979258 0.00969595 2.57686e-05 0.00975257 1.71424e-07 273.198 
-0.37 -0.59 -0.500132 0.408741 0.00978822 0.00973396 1.71802e-05 0.00976068 1.71492e-07 273.316 
-0.41 -0.57 0.0936828 0.804153 0.00978368 0.00972578 2.80985e-05 0.00975355 1.71456e-07 273.174 
-0.45 -0.55 -0.0874974 -0.190559 0.00976015 0.00968879 -4.68976e-06 0.00970886 1.71115e-07 272.465 
-0.49 -0.53 0.20317 0.457697 0.00979363 0.00971161 1.21014e-05 0.00974697 1.71588e-07 272.78 
-0.35 -0.59 -0.749734 0.899347 0.00979344 0.00968851 1.01454e-05 0.00974165 1.71447e-07 272.855 
-0.39 -0.57 -0.0882829 1.15622 0.0097769 0.00968234 -2.85982e-08 0.00973788 1.7128e-07 273.017 
-0.43 -0.55 0.0561052 0.402446 0.00975406 0.00969914 2.08458e-05 0.00974069 1.71504e-07 272.739 
-0.47 -0.53 0.113626 0.106779 0.00978405 0.00968781 1.06932e-05 0.009728 1.71403e-07 272.544 
-0.29 -0.57 -0.470004 0.344572 0.0097693 0.00967685 1.71141e-05 0.00972359 1.71196e-07 272.749 
-0.33 -0.55 -0.448553 1.01588 0.00979009 0.00971129 6.81494e-06 0.00974037 1.71357e-07 272.963 
-0.29 -0.61 -0.691799 0.522284 0.00976927 0.00969639 5.73747e-06 0.00973363 1.71423e-07 272.669 
-0.33 -0.59 -0.528802 0.849173 0.00979738 0.0097029 2.40496e-05 0.00976263 1.71685e-07 273.064 
-0.27 -0.61 -0.889554 0.754722 0.00978713 0.00969179 2.15433e-05 0.00974641 1.71685e-07 272.611 
-0.31 -0.59 -0.988019 0.64353 0.00979913 0.00973443 1.69012e-05 0.00975869 1.71775e-07 272.81 
-0.29 -0.59 -0.820726 0.105863 0.00980268 0.00967773 2.30772e-05 0.00973215 1.71172e-07 273.027 
-0.33 -0.57 -0.182718 0.706097 0.00976862 0.00971275 -1.66043e-06 0.00972725 1.71188e-07 272.865 
-0.27 -0.59 -0.52011 0.818211 0.00978245 0.00969922 2.77993e-05 0.00974487 1.71278e-07 273.214 
-0.31 -0.57 -0.152736 0.701606 0.00977947 0.00971428 1.15521e-05 0.0097515 1.71546e-07 272.974 
-0.27 -0.57 -0.511611 0.275995 0.00978542 0.00969759 3.24377e-05 0.00975892 1.71638e-07 273.035 
-0.31 -0.55 -0.100746 0.841793 0.00977276 0.0096845 2.58741e-05 0.00972766 1.70917e-07 273.309 
-0.29 -0.55 -0.445182 0.485812 0.00975981 0.00969556 3.25418e-05 0.00972052 1.709e-07 273.134 
-0.33 -0.53 -0.017446 1.27473 0.00975368 0.00971028 1.77904e-05 0.0097186 1.70951e-07 273 
-0.27 -0.55 -0.435537 0.358007 0.00974008 0.0096667 2.98748e-05 0.00970766 1.71255e-07 272.208 
-0.31 -0.53 -0.214303 0.608204 0.00975699 0.00967099 2.48521e-05 0.00972147 1.70887e-07 273.183 
-0.29 -0.53 -0.206331 0.722528 0.00979923 0.00969294 3.76644e-05 0.00974555 1.7136e-07 273.103 
-0.33 -0.51 -0.261415 0.839259 0.0097782 0.00969258 2.19543e-05 0.00973447 1.71373e-07 272.772 
-0.27 -0.53 -0.196691 0.320381 0.00978451 0.0096719 3.34586e-05 0.00972904 1.71217e-07 272.868 
-0.31 -0.51 -0.120715 0.736322 0.00976829 0.00967524 8.06856e-06 0.00971436 1.70995e-07 272.81 
-0.29 -0.51 -0.0542389 0.589968 0.00975041 0.00966549 2.35624e-05 0.00971504 1.70892e-07 272.994 
-0.27 -0.51 -0.129082 0.78204 0.00978359 0.00968778 3.38529e-05 0.00974538 1.71257e-07 273.263 
-0.33 -0.65 -1.0735 0.247489 0.00976314 0.00971726 1.6284e-05 0.00974158 1.71241e-07 273.182 
-0.31 -0.65 -0.730615 0.924127 0.00975501 0.00969596 1.44118e-05 0.00974071 1.71345e-07 272.991 
-0.29 -0.65 -0.544099 0.497083 0.00973374 0.00969736 1.73086e-05 0.00972876 1.71288e-07 272.748 
-0.33 -0.63 -0.686106 0.440031 0.00975553 0.00972288 2.94453e-05 0.00973446 1.7119e-07 273.064 
-0.27 -0.65 -0.60429 0.717139 0.00976605 0.00971636 1.53849e-05 0.00975163 1.71611e-07 272.874 
-0.31 -0.63 -0.83459 0.487055 0.00974076 0.00968008 1.44414e-05 0.0097186 1.70909e-07 273.067 
-0.25 -0.65 -0.630747 0.196054 0.00975899 0.0096916 1.33695e-05 0.00973085 1.71518e-07 272.441 
-0.29 -0.63 -0.858834 0.305536 0.00977385 0.00972125 8.16265e-06 0.00973406 1.71358e-07 272.785 
-0.27 -0.63 -0.768026 0.786377 0.00973925 0.00969691 1.2721e-05 0.00972347 1.71618e-07 272.076 
-0.31 -0.61 -0.983015 0.499979 0.00979024 0.00972365 1.92506e-05 0.00975611 1.71614e-07 272.994 
-0.49 -0.67 0.0781909 0.601813 0.00977827 0.00970036 -5.64374e-07 0.00973785 1.71214e-07 273.12 
-0.47 -0.67 0.0966635 -0.260031 0.00976901 0.00974347 4.14641e-06 0.00975359 1.71715e-07 272.764 
-0.45 -0.67 0.0760026 0.984214 0.00976126 0.0097291 1.71741e-06 0.00974499 1.71486e-07 272.886 
-0.43 -0.67 -0.0154462 0.195409 0.00978035 0.00970307 -2.17943e-06 0.0097414 1.7189e-07 272.146 