ITEM: TIMESTEP
1049000
ITEM: NUMBER OF CELLS
5000
ITEM: BOX BOUNDS ss ss pp
-0.5 0.5
-1 1
-0.5 0.5
ITEM: CELLS xc yc f_U[*] f_V[*] f_Tau[1] f_Tau[2] f_Tau[3] f_Press[*] f_Mrho[*] f_Ttra[*] 
-0.49 -0.99 -0.0313303 0.0906307 0.00976286 0.00973457 9.24409e-06 0.0097494 1.71514e-07 272.966 
-0.47 -0.99 -0.127871 0.0224157 0.0097493 0.00971876 7.95408e-06 0.00973742 1.71421e-07 272.779 
-0.45 -0.99 -0.249049 0.0240971 0.0097512 0.00973017 6.27295e-06 0.00974401 1.71421e-07 272.963 
-0.49 -0.97 -0.0450658 0.146131 0.0097439 0.00972265 1.19737e-05 0.00973313 1.71323e-07 272.815 
-0.43 -0.99 -0.279902 -0.0486511 0.00974499 0.00972365 4.53137e-06 0.00973833 1.71306e-07 272.987 
-0.47 -0.97 -0.100929 0.0953202 0.00974723 0.00972206 1.41466e-05 0.00973891 1.71364e-07 272.912 
-0.41 -0.99 -0.104825 -0.062597 0.00974222 0.00972851 1.13117e-06 0.00973882 1.71322e-07 272.975 
-0.45 -0.97 -0.0387687 0.0685137 0.00974585 0.00973532 5.33075e-06 0.00974556 1.71452e-07 272.957 
-0.49 -0.95 0.0463599 0.09742 0.00973448 0.00971424 2.67363e-06 0.00973134 1.71255e-07 272.873 
-0.39 -0.99 -0.169396 0.0934497 0.00974527 0.00972671 2.3669e-06 0.00973595 1.71163e-07 273.149 
-0.43 -0.97 0.00384229 0.0667097 0.00974888 0.0097246 1.67376e-06 0.00974203 1.71348e-07 273.024 
-0.47 -0.95 0.0990525 0.0985001 0.00975154 0.00972728 -9.12025e-07 0.0097405 1.71395e-07 272.906 
-0.37 -0.99 -0.17165 -0.0282027 0.0097432 0.00972898 8.32424e-06 0.00973842 1.71307e-07 272.987 
-0.41 -0.97 -0.191826 -0.159805 0.00974501 0.00972869 5.49294e-06 0.00973977 1.7136e-07 272.942 
-0.45 -0.95 0.188448 -0.0282525 0.00975912 0.00974015 6.27103e-06 0.00975614 1.71616e-07 272.993 
-0.49 -0.93 -0.0118939 0.0498779 0.0097697 0.00972395 -1.07161e-06 0.00975099 1.71533e-07 272.981 
-0.35 -0.99 -0.12317 -0.0958684 0.00973519 0.00970866 4.43646e-06 0.00971912 1.71076e-07 272.814 
-0.39 -0.97 -0.035937 0.039177 0.00974106 0.00972468 7.07958e-06 0.00973973 1.71423e-07 272.84 
-0.43 -0.95 0.152143 0.0734701 0.00975832 0.00972115 7.55342e-06 0.00974628 1.71483e-07 272.929 
-0.47 -0.93 0.0135372 0.0422448 0.0097597 0.00972259 6.74082e-07 0.00974544 1.71511e-07 272.86 
-0.33 -0.99 -0.0839847 0.0171941 0.00973301 0.00972754 6.11903e-06 0.00972759 1.71232e-07 272.804 
-0.37 -0.97 0.00993532 -0.106149 0.00973891 0.009728 5.79517e-06 0.00974058 1.71334e-07 273.006 
-0.41 -0.95 0.0499605 0.0517141 0.00975697 0.00972938 3.90046e-06 0.00974394 1.7154e-07 272.771 
-0.45 -0.93 -0.0848277 0.0770996 0.00975534 0.00973242 5.44146e-06 0.00974545 1.71534e-07 272.824 
-0.49 -0.91 -0.0140412 0.171147 0.00977243 0.00972903 1.16058e-05 0.00975392 1.71478e-07 273.15 
-0.35 -0.97 -0.00922888 -0.0232567 0.00973741 0.00971085 1.0415e-05 0.00972807 1.71147e-07 272.953 
-0.39 -0.95 -0.13448 -0.0550603 0.00975397 0.00972446 7.72315e-06 0.00974008 1.71491e-07 272.742 
-0.43 -0.93 -0.0888362 0.08155 0.00975464 0.00972595 3.67979e-06 0.00973744 1.71422e-07 272.777 
-0.47 -0.91 -0.246521 0.0355334 0.00976292 0.00972349 6.89137e-06 0.00974366 1.71493e-07 272.838 
-0.33 -0.97 -0.0851125 -0.0162957 0.00974281 0.00972468 5.87911e-06 0.00973941 1.71451e-07 272.786 
-0.37 -0.95 -0.125306 -0.103437 0.00975563 0.00972177 1.23434e-05 0.00974299 1.71325e-07 273.087 
-0.41 -0.93 -0.0618891 0.0514751 0.009753 0.0097239 1.17798e-05 0.00973247 1.7128e-07 272.864 
-0.45 -0.91 -0.0842593 0.0282179 0.00976376 0.00972625 6.37118e-06 0.00975011 1.71517e-07 272.982 
-0.49 -0.89 -0.0110909 0.139917 0.00976934 0.00972845 1.13554e-05 0.00975059 1.71462e-07 273.083 
-0.35 -0.95 -0.0653708 0.00370569 0.00975624 0.00971738 4.82042e-06 0.00974037 1.71366e-07 272.948 
-0.39 -0.93 0.0336198 -0.053816 0.009751 0.00972541 8.0816e-06 0.0097411 1.71588e-07 272.616 
-0.43 -0.91 -0.138614 0.0582481 0.00976012 0.00973167 9.92017e-06 0.0097427 1.71335e-07 273.064 
-0.47 -0.89 0.103528 0.133168 0.00976928 0.00973006 8.67859e-06 0.00974786 1.71576e-07 272.825 
-0.37 -0.93 -0.00759284 -0.0313639 0.00975411 0.00972184 3.07639e-06 0.00974476 1.71406e-07 273.007 
-0.41 -0.91 -0.0413191 -0.00759677 0.0097672 0.00971595 4.51604e-06 0.00974022 1.71345e-07 272.978 
-0.45 -0.89 -0.0831613 0.144386 0.00976185 0.00972084 4.59756e-06 0.00974411 1.71437e-07 272.941 
-0.49 -0.87 -0.033496 0.173509 0.00975256 0.0097165 -6.86392e-07 0.00973365 1.71308e-07 272.852 
-0.35 -0.93 -0.288009 0.0470837 0.00975715 0.00971958 9.49074e-06 0.0097382 1.71443e-07 272.765 
-0.39 -0.91 -0.0752971 -0.0651774 0.00977149 0.00973115 1.25235e-05 0.0097545 1.71725e-07 272.773 
-0.43 -0.89 -0.149214 0.0293534 0.00976787 0.00973826 5.89525e-06 0.00975296 1.71479e-07 273.121 
-0.47 -0.87 0.0827548 0.10552 0.00976101 0.00973194 9.93606e-06 0.00974229 1.71404e-07 272.942 
-0.37 -0.91 -0.229761 0.203933 0.00975757 0.00972095 1.1569e-05 0.0097399 1.71613e-07 272.542 
-0.41 -0.89 -0.161099 -0.0428485 0.0097603 0.00971274 4.81778e-06 0.00974077 1.71478e-07 272.782 
-0.45 -0.87 -0.0965625 0.183946 0.00976696 0.0097212 9.07884e-06 0.00974953 1.71492e-07 273.005 
-0.49 -0.85 -0.0414755 0.156104 0.00975253 0.00971428 -5.75043e-07 0.00973109 1.71205e-07 272.945 
-0.35 -0.91 -0.127292 0.107346 0.0097499 0.00972108 3.86499e-06 0.00973515 1.71406e-07 272.739 
-0.39 -0.89 -0.081443 0.117036 0.00975491 0.00972016 1.2497e-05 0.00974501 1.71511e-07 272.847 
-0.43 -0.87 -0.0971882 0.125861 0.00975437 0.00973754 1.17514e-05 0.0097487 1.71541e-07 272.903 
-0.47 -0.85 -0.1157 0.182785 0.00975498 0.00972358 1.55703e-06 0.00974411 1.71346e-07 273.086 
-0.33 -0.91 -0.178749 -0.05509 0.00975509 0.00971754 1.24086e-05 0.00973927 1.7143e-07 272.816 
-0.37 -0.89 -0.15601 0.104842 0.00976284 0.00973194 1.69264e-05 0.00975442 1.7167e-07 272.858 
-0.41 -0.87 -0.180909 -0.0468825 0.00975726 0.00971552 8.85488e-06 0.00973848 1.71528e-07 272.637 
-0.45 -0.85 -0.0969599 0.209374 0.00975894 0.00971823 7.92821e-06 0.00974351 1.71346e-07 273.069 
-0.35 -0.89 -0.197675 0.130149 0.00976554 0.00971984 1.17825e-05 0.00973921 1.71443e-07 272.793 
-0.39 -0.87 -0.258826 0.120777 0.00976502 0.00971596 7.04328e-06 0.00974466 1.71557e-07 272.765 
-0.43 -0.85 -0.206251 0.148942 0.00976945 0.00973841 7.85486e-06 0.00974956 1.71637e-07 272.775 
-0.37 -0.87 -0.315522 0.223835 0.00977033 0.00972992 8.88144e-06 0.00975383 1.71664e-07 272.852 
-0.41 -0.85 -0.169986 0.0750532 0.00976992 0.00971833 1.00475e-05 0.00974606 1.71601e-07 272.735 
-0.35 -0.87 -0.298779 0.0916957 0.0097679 0.00972203 1.18883e-05 0.00974299 1.71455e-07 272.88 
-0.39 -0.85 -0.274613 0.322344 0.00976783 0.00971698 3.68827e-06 0.00974847 1.71578e-07 272.837 
-0.33 -0.87 -0.324686 0.112593 0.00976392 0.00972071 1.23362e-05 0.00974473 1.71541e-07 272.793 
-0.37 -0.85 -0.323527 0.0811484 0.00976675 0.00972326 1.11566e-05 0.00974737 1.71518e-07 272.902 
-0.35 -0.85 -0.232829 0.127958 0.00976626 0.00972011 1.30684e-05 0.00974351 1.71397e-07 272.987 
-0.33 -0.85 -0.366529 0.285451 0.009767 0.00972327 1.34793e-05 0.00974228 1.71411e-07 272.931 
-0.31 -0.99 -0.0140105 -0.0218832 0.00972818 0.00971462 1.43219e-05 0.00971962 1.71178e-07 272.666 
-0.29 -0.99 -0.105266 0.0440083 0.00972833 0.00971669 9.4089e-06 0.00972937 1.71193e-07 272.917 
-0.27 -0.99 -0.149976 -0.0069862 0.00974253 0.00972712 6.59082e-06 0.00973407 1.71185e-07 273.06 
-0.31 -0.97 -0.350676 -0.00602334 0.00974834 0.00971994 6.14692e-06 0.00973712 1.71381e-07 272.834 
-0.29 -0.97 -0.413679 0.196317 0.00975671 0.0097199 7.6276e-06 0.00974883 1.71517e-07 272.945 
-0.33 -0.95 -0.0865391 0.121162 0.00975284 0.00972162 1.00638e-05 0.00973922 1.71347e-07 272.947 
-0.27 -0.97 -0.29704 -0.100583 0.0097453 0.00972166 9.33109e-06 0.00973855 1.71378e-07 272.879 
-0.31 -0.95 -0.165478 0.217316 0.00975077 0.00972183 7.65842e-06 0.0097349 1.71321e-07 272.868 
-0.29 -0.95 -0.131302 0.0749906 0.00974466 0.00970998 8.87e-06 0.00972724 1.71258e-07 272.753 
-0.33 -0.93 -0.244011 0.148761 0.00975799 0.0097178 3.36181e-06 0.00973651 1.71314e-07 272.924 
-0.27 -0.95 -0.335845 -0.0882935 0.00974937 0.00972756 6.57464e-06 0.00973992 1.71357e-07 272.95 
-0.31 -0.93 -0.0494916 0.0758626 0.00975902 0.00972 9.99205e-06 0.00974058 1.71567e-07 272.635 
-0.29 -0.93 -0.147263 0.228697 0.00976094 0.00971304 8.96582e-06 0.00973931 1.71466e-07 272.76 
-0.27 -0.93 -0.174619 0.116099 0.00976108 0.00972318 8.83501e-06 0.00974542 1.71535e-07 272.822 
-0.31 -0.91 -0.189854 0.173779 0.009755 0.00971953 9.53665e-06 0.00974081 1.71487e-07 272.768 
-0.29 -0.91 -0.232696 0.15643 0.00975324 0.00971497 2.31218e-06 0.0097337 1.71408e-07 272.695 
-0.33 -0.89 -0.231218 0.00968389 0.00975783 0.00972011 6.41919e-06 0.00974185 1.71433e-07 272.884 
-0.27 -0.91 -0.0868365 0.143817 0.00975644 0.00972058 6.04695e-06 0.00973719 1.7149e-07 272.662 
-0.31 -0.89 -0.195767 0.189389 0.00976078 0.00972103 3.88551e-06 0.00974703 1.71543e-07 272.854 
-0.29 -0.89 -0.134487 0.0493518 0.00975885 0.00971533 8.85074e-06 0.00974282 1.71367e-07 273.017 
-0.27 -0.89 -0.28393 0.266573 0.0097512 0.00971675 1.00353e-05 0.0097417 1.7144e-07 272.867 
-0.31 -0.87 -0.441316 0.180686 0.00975895 0.00972222 7.71222e-06 0.00974104 1.71468e-07 272.806 
-0.29 -0.87 -0.420112 0.110417 0.00975423 0.0097089 1.02568e-05 0.00973761 1.71299e-07 272.978 
-0.27 -0.87 -0.391444 0.273558 0.0097568 0.00971844 1.55626e-05 0.00974188 1.71402e-07 272.934 
-0.31 -0.85 -0.367662 0.0257317 0.0097636 0.00972388 1.57205e-05 0.00974729 1.71503e-07 272.925 
-0.29 -0.85 -0.248871 0.181611 0.00975478 0.00970667 1.24922e-05 0.00974015 1.71376e-07 272.927 
-0.27 -0.85 -0.270873 0.180278 0.0097541 0.00971735 1.15067e-05 0.00973911 1.71181e-07 273.208 
-0.25 -0.99 -0.259971 0.0912255 0.00974854 0.00973874 1.11335e-05 0.00974718 1.71441e-07 273.021 
-0.25 -0.97 -0.165374 0.0733717 0.00974386 0.00973113 8.19925e-06 0.00974181 1.71459e-07 272.841 
-0.25 -0.95 -0.426705 0.0301111 0.00974809 0.0097308 9.42686e-06 0.00974238 1.71392e-07 272.964 
-0.25 -0.93 -0.207667 0.0279885 0.00976019 0.00973302 1.18993e-05 0.00974525 1.7155e-07 272.792 
-0.25 -0.91 -0.255431 0.108348 0.00975627 0.00973014 1.04107e-05 0.0097452 1.7158e-07 272.743 
-0.25 -0.89 -0.309463 0.217868 0.00974894 0.00972234 1.56655e-05 0.00973642 1.71349e-07 272.865 
-0.25 -0.87 -0.400229 0.232246 0.00975208 0.009717 1.60856e-05 0.00973855 1.7132e-07 272.971 
-0.25 -0.85 -0.223713 0.280677 0.00976246 0.00972002 1.02824e-05 0.00974591 1.71407e-07 273.039 
-0.25 -0.83 -0.402071 0.244973 0.00976091 0.00971704 7.27212e-06 0.00974296 1.71376e-07 273.005 
-0.33 -0.81 -0.105741 0.238577 0.00976203 0.00971276 1.33495e-05 0.00973987 1.71445e-07 272.808 
-0.31 -0.81 -0.217856 0.171221 0.00977761 0.00972395 1.33163e-05 0.00975297 1.71476e-07 273.126 
-0.29 -0.81 -0.227946 0.144837 0.00978009 0.00972457 1.09974e-05 0.00975599 1.71541e-07 273.108 
-0.27 -0.81 -0.31585 0.290897 0.00977729 0.00971867 1.21878e-05 0.00975387 1.71528e-07 273.068 
-0.31 -0.79 -0.242835 0.161665 0.00975851 0.00972018 7.70091e-06 0.00974084 1.71462e-07 272.809 
-0.29 -0.79 -0.307127 0.36441 0.00976109 0.00972144 1.146e-05 0.00974101 1.71502e-07 272.75 
-0.33 -0.77 -0.331489 0.290562 0.0097705 0.00972391 1.7639e-05 0.00974598 1.71518e-07 272.865 
-0.27 -0.79 -0.399426 0.240095 0.00976384 0.00971389 1.14758e-05 0.0097417 1.71432e-07 272.881 
-0.31 -0.77 -0.286189 0.125688 0.00976704 0.00971794 1.21379e-05 0.00974348 1.71516e-07 272.797 
-0.29 -0.77 -0.265046 0.360511 0.00975927 0.00971835 1.05785e-05 0.00974063 1.71571e-07 272.63 
-0.27 -0.77 -0.315054 0.231945 0.00975677 0.00971174 9.46879e-06 0.0097381 1.71392e-07 272.843 
-0.31 -0.75 -0.198377 0.336439 0.00976605 0.00972104 1.27475e-05 0.00974943 1.71622e-07 272.795 
-0.29 -0.75 -0.476666 0.352859 0.00976673 0.00972122 1.46927e-05 0.00975047 1.71601e-07 272.858 
-0.27 -0.75 -0.501956 0.499371 0.00976636 0.00970886 1.85622e-05 0.00973616 1.71348e-07 272.86 
-0.49 -0.83 -0.000534093 0.238625 0.00975573 0.00971669 -1.30388e-06 0.00973633 1.71333e-07 272.888 
-0.47 -0.83 -0.11844 0.178413 0.00975594 0.00971986 1.8098e-06 0.00973915 1.71586e-07 272.564 
-0.45 -0.83 -0.145422 0.277909 0.00975611 0.00972108 2.2734e-07 0.0097413 1.71422e-07 272.885 
-0.49 -0.81 -0.041717 0.271129 0.00976562 0.00972077 9.19696e-07 0.00974311 1.71476e-07 272.851 
-0.43 -0.83 -0.110455 0.230072 0.0097562 0.0097232 4.37041e-06 0.00974131 1.7146e-07 272.826 
-0.47 -0.81 -0.114921 0.239717 0.00976403 0.00971713 -1.0276e-06 0.00974552 1.71535e-07 272.823 
-0.45 -0.81 -0.0748236 0.268125 0.00976742 0.00972352 2.23052e-06 0.00974481 1.71495e-07 272.868 
-0.49 -0.79 -0.0596258 0.469487 0.00975967 0.00972286 3.63168e-06 0.00974062 1.71431e-07 272.852 
-0.43 -0.81 -0.0566199 0.253934 0.00976275 0.00971417 4.25409e-06 0.00974093 1.71601e-07 272.591 
-0.47 -0.79 -0.0413043 0.119733 0.00975551 0.00971778 -4.66773e-06 0.00973883 1.71387e-07 272.872 
-0.41 -0.81 -0.230309 0.181103 0.00976544 0.00972792 1.08424e-05 0.00975166 1.71594e-07 272.901 
-0.45 -0.79 -0.0382512 0.292787 0.00975685 0.00971744 2.23996e-06 0.00973591 1.71423e-07 272.733 
-0.49 -0.77 0.0752126 0.385677 0.00975843 0.00972451 5.63926e-06 0.0097443 1.71404e-07 272.999 
-0.39 -0.81 -0.287841 0.230851 0.00975842 0.00971464 1.41521e-05 0.00974277 1.71561e-07 272.705 
-0.43 -0.79 -0.306768 0.355174 0.00976509 0.0097127 2.99199e-06 0.00973778 1.71509e-07 272.649 
-0.47 -0.77 0.0103041 0.270986 0.00975877 0.00972548 3.69601e-06 0.00974509 1.71437e-07 272.968 
-0.37 -0.81 -0.043938 0.11096 0.00975723 0.00971919 1.0653e-05 0.00973902 1.71549e-07 272.619 
-0.41 -0.79 -0.300353 0.286828 0.00976697 0.00972372 8.66566e-06 0.0097492 1.71651e-07 272.742 
-0.45 -0.77 -0.274258 0.461006 0.00975764 0.00971407 -5.58845e-06 0.00973593 1.71439e-07 272.708 
-0.35 -0.81 -0.00295317 0.166395 0.00975119 0.0097137 7.93856e-06 0.00973652 1.71404e-07 272.781 
-0.39 -0.79 -0.238855 0.108615 0.0097658 0.0097129 9.70882e-06 0.00974061 1.71581e-07 272.613 
-0.43 -0.77 -0.190469 0.413137 0.0097553 0.00971033 1.52929e-06 0.00973333 1.71414e-07 272.675 
-0.37 -0.79 -0.259465 0.10089 0.00977372 0.00971817 1.17861e-05 0.00974412 1.71548e-07 272.764 
-0.41 -0.77 -0.21732 0.142849 0.00975516 0.00971054 9.50019e-06 0.00973361 1.71349e-07 272.787 
-0.35 -0.79 -0.250232 0.148402 0.00977497 0.00971794 1.45679e-05 0.00974751 1.71595e-07 272.784 
-0.39 -0.77 -0.115681 0.12253 0.00975791 0.00972164 1.14778e-05 0.00974506 1.71591e-07 272.723 
-0.43 -0.75 0.0319196 0.194839 0.00976568 0.00970716 -1.04294e-06 0.00974065 1.71455e-07 272.815 
-0.33 -0.79 -0.263193 0.270236 0.0097628 0.00971564 6.77802e-06 0.0097392 1.71439e-07 272.8 
-0.37 -0.77 -0.155089 0.185052 0.00975938 0.00971599 3.65647e-06 0.0097396 1.71452e-07 272.79 
-0.41 -0.75 -0.0170862 0.345067 0.00976774 0.00970247 6.59072e-06 0.00974216 1.71561e-07 272.689 
-0.35 -0.77 -0.35322 0.2792 0.00976796 0.0097142 8.14479e-06 0.00974088 1.71428e-07 272.864 
-0.39 -0.75 -0.229244 0.177228 0.00977304 0.00972456 7.64818e-06 0.00975151 1.7171e-07 272.714 
-0.49 -0.75 -0.0420902 0.319541 0.00976907 0.00972744 5.36535e-06 0.00975247 1.71535e-07 273.019 
-0.47 -0.75 -0.0904311 0.467335 0.00976677 0.0097327 5.51742e-06 0.00974617 1.71434e-07 273.003 
-0.45 -0.75 -0.115454 0.546148 0.00976382 0.00971242 1.93055e-07 0.00973539 1.71479e-07 272.629 
-0.49 -0.73 -0.0928907 0.504571 0.00977085 0.00972007 6.4572e-06 0.00974602 1.71441e-07 272.987 
-0.47 -0.73 -0.189299 0.443668 0.00977502 0.00974151 3.12875e-06 0.00975493 1.7149e-07 273.159 
-0.45 -0.73 -0.0895898 0.286685 0.00977631 0.00971643 -2.89818e-06 0.00974286 1.7145e-07 272.885 
-0.49 -0.71 -0.0116146 0.613805 0.00977316 0.00971911 -7.96749e-07 0.00974453 1.7152e-07 272.819 
-0.43 -0.73 -0.0450605 0.375777 0.00976487 0.00970188 5.84123e-06 0.00973659 1.71395e-07 272.797 
-0.47 -0.71 -0.0427076 0.483751 0.00977513 0.00973856 1.67141e-06 0.00975573 1.71504e-07 273.16 
-0.37 -0.75 -0.220731 0.138193 0.00976644 0.00971757 1.1788e-05 0.00973976 1.71504e-07 272.712 
-0.41 -0.73 -0.146741 0.37583 0.00976434 0.0097008 8.36158e-07 0.00973629 1.71548e-07 272.545 
-0.45 -0.71 0.0276967 0.233763 0.00976327 0.0097138 9.83452e-06 0.00973804 1.71297e-07 272.993 
-0.49 -0.69 0.0523636 0.567014 0.00976375 0.00971407 -6.99683e-06 0.00974112 1.71413e-07 272.895 
-0.35 -0.75 -0.0519332 0.254669 0.00975863 0.00970889 9.65648e-06 0.00973398 1.71366e-07 272.77 
-0.39 -0.73 -0.158651 0.207839 0.00976798 0.00971323 1.04213e-05 0.00974103 1.71464e-07 272.812 
-0.43 -0.71 -0.16564 0.384011 0.00976402 0.00970643 5.17344e-06 0.00973787 1.71542e-07 272.599 
-0.47 -0.69 0.152873 0.427128 0.0097668 0.00972632 5.8556e-06 0.00974748 1.71404e-07 273.088 
-0.37 -0.73 -0.306771 0.183822 0.00977208 0.0097212 1.15765e-05 0.00974519 1.71548e-07 272.794 
-0.41 -0.71 -0.0975472 0.474259 0.00976901 0.00969678 1.73511e-06 0.00973643 1.71661e-07 272.369 
-0.45 -0.69 -0.066248 0.410973 0.00977737 0.00971439 9.84939e-06 0.00974909 1.71524e-07 272.942 
-0.35 -0.73 -0.555195 0.34566 0.00977238 0.00971205 1.0074e-05 0.00974549 1.71577e-07 272.756 
-0.39 -0.71 -0.174251 0.234956 0.00976849 0.00971523 1.50891e-06 0.00973954 1.71502e-07 272.709 
-0.43 -0.69 -0.133183 0.45892 0.00977771 0.00971577 8.16466e-06 0.00975171 1.71761e-07 272.638 
-0.33 -0.73 -0.347518 0.14699 0.00977189 0.00970845 1.41802e-05 0.00974149 1.71596e-07 272.614 
-0.37 -0.71 -0.12881 0.261934 0.00976983 0.00971401 1.25657e-05 0.00974543 1.71564e-07 272.776 
-0.41 -0.69 -0.110806 0.36649 0.00976925 0.00970233 1.9783e-06 0.00973737 1.71615e-07 272.468 
-0.35 -0.71 -0.250412 0.46936 0.00976918 0.00970838 9.53834e-06 0.00974548 1.71557e-07 272.788 
-0.39 -0.69 -0.119041 0.404214 0.00976255 0.00970362 5.43194e-06 0.00973569 1.71424e-07 272.725 
-0.37 -0.69 -0.336552 0.361725 0.00976136 0.00971167 1.05338e-05 0.00974077 1.71509e-07 272.733 
-0.35 -0.69 -0.307451 0.519663 0.00976292 0.00970549 1.19643e-05 0.00973387 1.71354e-07 272.785 
-0.35 -0.67 -0.246302 0.454855 0.00977154 0.00971453 1.02647e-05 0.00974442 1.71482e-07 272.878 
-0.33 -0.67 -0.359356 0.540775 0.00975795 0.00970355 7.25312e-06 0.0097399 1.71487e-07 272.743 
-0.33 -0.75 -0.0983282 0.244491 0.00976049 0.00971661 1.00853e-05 0.00973865 1.71407e-07 272.836 
-0.31 -0.73 -0.422975 0.471914 0.00976868 0.00972552 1.26141e-05 0.00975104 1.71608e-07 272.862 
-0.29 -0.73 -0.338873 0.467862 0.00977142 0.00971317 1.40676e-05 0.00975089 1.71527e-07 272.987 
-0.33 -0.71 -0.53704 0.127502 0.00976651 0.00971143 1.35852e-05 0.00974118 1.7149e-07 272.774 
-0.27 -0.73 -0.430278 0.564081 0.00976654 0.00971736 1.97885e-05 0.00974685 1.71455e-07 272.988 
-0.31 -0.71 -0.421634 0.457677 0.009766 0.00972421 1.60358e-05 0.0097482 1.71561e-07 272.858 
-0.29 -0.71 -0.501315 0.455771 0.00976026 0.00970788 1.7687e-05 0.00974086 1.7134e-07 273.005 
-0.33 -0.69 -0.326154 0.282589 0.00977368 0.0097115 6.83729e-06 0.00974537 1.71648e-07 272.64 
-0.27 -0.71 -0.393448 0.469366 0.00976572 0.00971333 1.3318e-05 0.00974183 1.71331e-07 273.045 
-0.31 -0.69 -0.568257 0.441023 0.00977849 0.00971865 1.48491e-05 0.00975181 1.7161e-07 272.881 
-0.29 -0.69 -0.527952 0.53176 0.00977788 0.0097134 1.89344e-05 0.00975093 1.71532e-07 272.981 
-0.27 -0.69 -0.562205 0.381776 0.00977562 0.00971722 1.3801e-05 0.00974648 1.71372e-07 273.11 
-0.31 -0.67 -0.4192 0.532095 0.00975713 0.00971347 1.2554e-05 0.00973999 1.71466e-07 272.779 
-0.29 -0.67 -0.439878 0.427997 0.00976261 0.00971189 1.59828e-05 0.00974095 1.71318e-07 273.041 
-0.41 -0.83 -0.170144 0.0928562 0.00975734 0.00972539 8.97301e-06 0.00974183 1.71548e-07 272.699 
-0.39 -0.83 -0.163587 0.314751 0.00975529 0.0097176 6.78632e-06 0.00973405 1.71442e-07 272.651 
-0.37 -0.83 -0.19125 0.233065 0.00975178 0.00971847 6.83733e-06 0.00973507 1.71299e-07 272.907 
-0.35 -0.83 -0.303782 0.0601184 0.00975757 0.00971643 1.5806e-05 0.00973603 1.71388e-07 272.792 
-0.33 -0.83 -0.20539 0.328914 0.00975668 0.00972373 1.49301e-05 0.00973897 1.71287e-07 273.036 
-0.31 -0.83 -0.137986 -0.133315 0.00974962 0.0097133 1.97632e-05 0.00973899 1.7144e-07 272.791 
-0.29 -0.83 -0.239465 0.198612 0.00975721 0.00972041 1.6548e-05 0.0097465 1.71354e-07 273.14 
-0.27 -0.83 -0.306983 0.281007 0.00975772 0.00971608 7.04622e-06 0.00974433 1.71388e-07 273.025 
-0.27 -0.67 -0.482314 0.491156 0.00976074 0.00971867 1.84702e-05 0.0097415 1.71386e-07 272.948 
-0.25 -0.67 -0.540845 0.456581 0.00976919 0.00971967 1.25834e-05 0.00975173 1.71426e-07 273.172 
-0.25 -0.81 -0.298965 0.357736 0.00976321 0.00971535 7.05197e-06 0.00974304 1.71392e-07 272.983 
-0.25 -0.79 -0.285199 0.230569 0.00976877 0.00972298 2.0194e-05 0.00974454 1.71401e-07 273.009 
-0.35 -0.55 -0.216959 0.722431 0.00978354 0.00971124 6.82215e-06 0.00974592 1.71437e-07 272.991 
-0.39 -0.53 -0.240783 0.876121 0.00977391 0.0096918 4.11248e-06 0.00973636 1.71416e-07 272.757 
-0.37 -0.57 -0.26114 0.785721 0.00976874 0.0097045 1.2485e-05 0.00974277 1.71322e-07 273.085 
-0.41 -0.55 -0.226058 0.915164 0.0097589 0.00969785 7.57588e-06 0.00973546 1.71394e-07 272.766 
-0.45 -0.53 -0.0782533 0.598733 0.00976058 0.00969732 -2.01542e-06 0.00972834 1.71303e-07 272.712 
-0.35 -0.57 -0.224808 0.748528 0.00977543 0.00970205 1.8457e-05 0.00974254 1.7145e-07 272.876 
-0.39 -0.55 -0.332422 0.752645 0.00976296 0.00968825 3.91397e-06 0.0097352 1.7132e-07 272.877 
-0.43 -0.53 -0.190524 0.865645 0.00976532 0.00969145 4.36358e-06 0.00973095 1.71404e-07 272.625 
-0.47 -0.51 -0.0501483 0.761032 0.00977108 0.00970142 -7.91968e-07 0.00973913 1.71521e-07 272.667 
-0.37 -0.55 -0.259173 0.744718 0.0097677 0.00969431 9.04252e-06 0.00973788 1.71258e-07 273.052 
-0.41 -0.53 -0.242757 0.777336 0.00977143 0.00970003 4.77283e-06 0.00973733 1.7147e-07 272.698 
-0.45 -0.51 -0.280328 0.733982 0.00976808 0.00969328 3.86355e-06 0.00973563 1.71445e-07 272.691 
-0.37 -0.53 -0.277316 0.719155 0.0097764 0.00969512 -1.89013e-06 0.0097389 1.71439e-07 272.792 
-0.41 -0.51 -0.279283 0.807929 0.00976344 0.00970091 -1.53771e-06 0.00973465 1.71405e-07 272.726 
-0.35 -0.53 -0.360519 0.746178 0.00977299 0.00970506 8.21875e-06 0.00974139 1.71482e-07 272.792 
-0.39 -0.51 -0.371449 0.873972 0.00977044 0.00969201 -4.74357e-07 0.00973323 1.71415e-07 272.671 
-0.37 -0.51 -0.377046 0.759128 0.00976856 0.0096902 4.1849e-06 0.0097304 1.71274e-07 272.815 
-0.35 -0.51 -0.419401 0.820036 0.00976529 0.00969864 9.81353e-06 0.00972685 1.71322e-07 272.641 
-0.49 -0.65 -0.0682789 0.479372 0.00977457 0.00972284 7.76673e-06 0.00975091 1.71519e-07 273 
-0.47 -0.65 -0.0913911 0.434057 0.00976888 0.00971295 4.94982e-07 0.00974509 1.71454e-07 272.941 
-0.45 -0.65 -0.0568143 0.64964 0.00976343 0.00971625 6.12722e-06 0.00974452 1.71626e-07 272.651 
-0.49 -0.63 0.0446657 0.465606 0.00976943 0.00972583 4.41324e-06 0.00975445 1.7179e-07 272.669 
-0.43 -0.65 0.00604643 0.584455 0.00975641 0.00969844 5.26173e-06 0.00973451 1.71448e-07 272.654 
-0.47 -0.63 0.0326605 0.529759 0.00976528 0.00970728 3.02532e-06 0.00974363 1.71595e-07 272.675 
-0.41 -0.65 0.0077905 0.564121 0.00976204 0.00970675 1.04918e-05 0.00973861 1.71453e-07 272.761 
-0.45 -0.63 -0.056092 0.605615 0.00977178 0.00971708 7.43794e-06 0.00974882 1.7164e-07 272.75 
-0.49 -0.61 -0.0386352 0.533547 0.00975861 0.00971206 -4.61919e-06 0.00974142 1.71413e-07 272.904 
-0.39 -0.65 -0.0909637 0.466341 0.00975955 0.00971229 8.19163e-06 0.00973765 1.71296e-07 272.984 
-0.43 -0.63 -0.0922112 0.619514 0.00977556 0.00970481 9.13148e-06 0.00974135 1.71334e-07 273.028 
-0.47 -0.61 -0.131327 0.532534 0.00976659 0.00971342 8.1655e-06 0.00974429 1.7149e-07 272.861 
-0.37 -0.65 -0.210091 0.486727 0.00975968 0.00969977 3.26463e-06 0.00972758 1.71131e-07 272.964 
-0.41 -0.63 -0.140962 0.609331 0.00976986 0.00969623 2.83767e-06 0.00973571 1.71365e-07 272.819 
-0.45 -0.61 -0.0714296 0.64917 0.00976493 0.00970839 -2.26575e-06 0.00973887 1.71379e-07 272.887 
-0.49 -0.59 0.00508251 0.492366 0.00977214 0.00970636 -6.07193e-06 0.00974682 1.71621e-07 272.723 
-0.35 -0.65 -0.296684 0.467907 0.00976809 0.00971362 1.21977e-05 0.0097395 1.71436e-07 272.813 
-0.39 -0.63 -0.103871 0.512475 0.0097777 0.0097176 1.28817e-05 0.0097481 1.7152e-07 272.92 
-0.43 -0.61 0.000587497 0.643227 0.00977299 0.00970753 4.36877e-06 0.0097419 1.71375e-07 272.977 
-0.47 -0.59 0.110835 0.559877 0.00977871 0.00971197 -5.45118e-06 0.00974799 1.71512e-07 272.93 
-0.37 -0.63 -0.199787 0.500338 0.00976362 0.00969811 1.11554e-05 0.00972921 1.71185e-07 272.924 
-0.41 -0.61 -0.0848494 0.58067 0.00977423 0.00970024 1.042e-05 0.00973772 1.71316e-07 272.954 
-0.45 -0.59 0.105237 0.514726 0.00977974 0.009711 3.98921e-06 0.00975093 1.71513e-07 273.011 
-0.49 -0.57 -0.06042 0.477446 0.0097785 0.00971005 -4.33836e-06 0.00974816 1.71547e-07 272.879 
-0.35 -0.63 -0.332286 0.599863 0.00975983 0.00970205 1.12944e-05 0.00973127 1.71286e-07 272.821 
-0.39 -0.61 -0.0925541 0.473623 0.00977241 0.00970547 8.70641e-06 0.00973851 1.71345e-07 272.931 
-0.43 -0.59 -0.0315958 0.808752 0.00977149 0.00969878 5.36993e-06 0.00974472 1.71519e-07 272.827 
-0.47 -0.57 -0.110224 0.48485 0.00976869 0.00970519 -4.85235e-06 0.00973484 1.7134e-07 272.834 
-0.37 -0.61 -0.167517 0.721012 0.00977583 0.00970549 1.40209e-05 0.0097406 1.715e-07 272.742 
-0.41 -0.59 -0.0510633 0.582795 0.00977759 0.00970135 4.2002e-06 0.00973974 1.71379e-07 272.911 
-0.45 -0.57 -0.103926 0.669922 0.00976875 0.00970251 2.03374e-06 0.0097375 1.71358e-07 272.882 
-0.49 -0.55 -0.0585018 0.634436 0.00975245 0.00970484 -6.00092e-06 0.00973198 1.71309e-07 272.804 
-0.35 -0.61 -0.205387 0.623266 0.00977112 0.00969946 1.10821e-05 0.00973277 1.71324e-07 272.802 
-0.39 -0.59 -0.0810389 0.61708 0.00977387 0.00969155 1.0625e-05 0.00973636 1.71329e-07 272.896 
-0.43 -0.57 0.0115535 0.754115 0.00977246 0.00969864 5.55206e-06 0.00974052 1.71376e-07 272.937 
-0.47 -0.55 -0.170621 0.646597 0.00976348 0.00969647 4.69999e-07 0.00973638 1.71448e-07 272.706 
-0.33 -0.61 -0.396314 0.584656 0.00976509 0.00969906 1.75953e-05 0.00973536 1.71276e-07 272.952 
-0.37 -0.59 -0.187281 0.686045 0.0097771 0.00971497 1.94716e-05 0.00974792 1.71542e-07 272.88 
-0.41 -0.57 -0.0741961 0.648888 0.00976477 0.00969875 1.15975e-05 0.00973569 1.71218e-07 273.054 
-0.45 -0.55 -0.18891 0.516901 0.0097611 0.00970147 2.98065e-06 0.00973061 1.71264e-07 272.837 
-0.49 -0.53 0.0426577 0.686759 0.00976369 0.00969588 -3.50416e-06 0.00973582 1.7134e-07 272.863 
-0.35 -0.59 -0.306098 0.753687 0.00976869 0.00969401 1.63739e-05 0.00972866 1.71324e-07 272.687 
-0.39 -0.57 -0.252133 0.770228 0.00976599 0.00968517 9.22619e-06 0.00973073 1.71138e-07 273.041 
-0.43 -0.55 -0.188134 0.639041 0.00975827 0.00969324 9.46435e-06 0.00972963 1.71317e-07 272.725 
-0.47 -0.53 0.0086707 0.612174 0.00975556 0.0096974 9.92153e-07 0.00972595 1.71215e-07 272.785 
-0.29 -0.57 -0.598693 0.675367 0.00977388 0.00971378 1.87686e-05 0.00974618 1.71449e-07 272.979 
-0.33 -0.55 -0.414739 0.884142 0.00978325 0.00971006 9.38911e-06 0.00974853 1.71463e-07 273.023 
-0.29 -0.61 -0.361546 0.591726 0.00976999 0.0097175 1.05852e-05 0.00974414 1.71595e-07 272.691 
-0.33 -0.59 -0.298471 0.778163 0.00976782 0.00970386 1.37937e-05 0.00973756 1.71301e-07 272.974 
-0.27 -0.61 -0.436121 0.511098 0.00977806 0.00971124 1.39758e-05 0.00974678 1.71593e-07 272.768 
-0.31 -0.59 -0.408015 0.608869 0.00977019 0.00971286 1.06077e-05 0.00974023 1.71445e-07 272.819 
-0.29 -0.59 -0.368314 0.488657 0.0097763 0.00971929 1.0512e-05 0.00974535 1.71573e-07 272.758 
-0.33 -0.57 -0.313501 0.734314 0.00978001 0.00971335 8.70251e-06 0.00974692 1.71405e-07 273.07 
-0.27 -0.59 -0.478896 0.686887 0.00977004 0.00970585 1.27302e-05 0.00974016 1.7149e-07 272.745 
-0.31 -0.57 -0.395937 0.696938 0.00978028 0.00970841 6.17715e-06 0.00974468 1.71529e-07 272.81 
-0.27 -0.57 -0.642876 0.716282 0.00976564 0.00970595 2.38348e-05 0.00974616 1.71561e-07 272.801 
-0.31 -0.55 -0.409767 0.932356 0.00977313 0.00970913 1.89113e-05 0.0097427 1.71444e-07 272.89 
-0.29 -0.55 -0.522768 0.660563 0.00976168 0.0096946 2.23018e-05 0.00973007 1.71223e-07 272.888 
-0.33 -0.53 -0.321676 1.06352 0.00977191 0.00969798 1.45306e-05 0.00973669 1.71306e-07 272.941 
-0.27 -0.55 -0.402458 0.583618 0.00976543 0.0097125 2.0686e-05 0.00974037 1.71405e-07 272.887 
-0.31 -0.53 -0.394496 0.812363 0.00977182 0.00970472 2.39568e-05 0.00974103 1.71478e-07 272.788 
-0.29 -0.53 -0.282928 0.638532 0.00978203 0.0097007 1.92535e-05 0.00974673 1.7148e-07 272.945 
-0.33 -0.51 -0.260745 0.884038 0.00976236 0.00969208 1.59818e-05 0.0097297 1.71119e-07 273.043 
-0.27 -0.53 -0.416545 0.764458 0.00977909 0.00971187 2.29003e-05 0.00974365 1.71491e-07 272.842 
-0.31 -0.51 -0.259571 0.879741 0.00976545 0.00970183 1.68652e-05 0.00972973 1.71295e-07 272.764 
-0.29 -0.51 -0.474088 0.797535 0.00976071 0.00970106 2.38596e-05 0.00973775 1.71443e-07 272.753 
-0.27 -0.51 -0.589022 0.960652 0.00975764 0.0097046 2.66133e-05 0.00973659 1.71349e-07 272.869 
-0.33 -0.65 -0.333314 0.469957 0.0097673 0.00970612 1.75597e-05 0.00973769 1.71303e-07 272.974 
-0.31 -0.65 -0.243555 0.571678 0.00976393 0.00971279 1.28636e-05 0.00974023 1.71321e-07 273.016 
-0.29 -0.65 -0.422539 0.543065 0.00975776 0.00970329 1.43792e-05 0.00973142 1.71188e-07 272.981 
-0.33 -0.63 -0.297235 0.50671 0.00976438 0.00971021 1.05552e-05 0.00974098 1.71401e-07 272.911 
-0.27 -0.65 -0.486147 0.488717 0.00976788 0.00972413 1.22086e-05 0.00974624 1.71504e-07 272.893 
-0.31 -0.63 -0.483773 0.651777 0.00976156 0.00970598 1.81349e-05 0.00973731 1.7129e-07 272.984 
-0.25 -0.65 -0.579576 0.451193 0.00976299 0.00971666 1.33681e-05 0.00974176 1.71477e-07 272.811 
-0.29 -0.63 -0.507802 0.473598 0.00976887 0.0097164 1.12748e-05 0.009743 1.71485e-07 272.833 
-0.27 -0.63 -0.446043 0.551252 0.0097584 0.00971476 1.4219e-05 0.00973644 1.71452e-07 272.701 
-0.31 -0.61 -0.434431 0.601567 0.00977235 0.0097137 1.42106e-05 0.0097466 1.71599e-07 272.752 
-0.49 -0.67 0.0779443 0.47565 0.00976638 0.00971527 -5.83294e-06 0.00974037 1.71455e-07 272.807 
-0.47 -0.67 0.0593356 0.403372 0.00976562 0.00972022 -1.19231e-06 0.00974329 1.71494e-07 272.827 
-0.45 -0.67 0.106853 0.573947 0.00976446 0.00971449 3.21761e-06 0.00974593 1.71514e-07 272.868 
-0.43 -0.67 -0.0936782 0.593795 0.00977062 0.0097087 5.45408e-06 0.0097439 1.71564e-07 272.733 