ITEM: TIMESTEP
1030000
ITEM: NUMBER OF CELLS
5000
ITEM: BOX BOUNDS ss ss pp
-0.5 0.5
-1 1
-0.5 0.5
ITEM: CELLS xc yc f_U[*] f_V[*] f_Tau[1] f_Tau[2] f_Tau[3] f_Press[*] f_Mrho[*] f_Ttra[*] 
-0.49 -0.99 -0.0336821 0.119075 0.00976468 0.00973454 8.49548e-06 0.0097501 1.71554e-07 272.922 
-0.47 -0.99 -0.187283 0.0220179 0.0097513 0.00971774 8.28763e-06 0.00973781 1.71435e-07 272.766 
-0.45 -0.99 -0.302554 0.0250602 0.00975239 0.00973216 6.45105e-06 0.00974637 1.71466e-07 272.958 
-0.49 -0.97 -0.0826581 0.172472 0.00974478 0.00972413 1.20879e-05 0.00973403 1.71348e-07 272.8 
-0.43 -0.99 -0.300765 -0.0780191 0.00974409 0.00972451 4.61323e-06 0.00973984 1.71332e-07 272.988 
-0.47 -0.97 -0.126725 0.14618 0.00974381 0.00971924 1.44116e-05 0.00973656 1.71354e-07 272.861 
-0.41 -0.99 -0.134123 -0.0486582 0.00974027 0.00973023 2.46921e-07 0.00974008 1.71343e-07 272.977 
-0.45 -0.97 -0.0568461 0.0162157 0.0097452 0.00973587 6.7232e-06 0.00974582 1.71442e-07 272.981 
-0.49 -0.95 0.0561518 0.126687 0.00973312 0.00971194 4.07225e-06 0.00973161 1.71236e-07 272.91 
-0.39 -0.99 -0.165623 0.060136 0.00974393 0.00972839 1.51623e-06 0.00973629 1.7115e-07 273.178 
-0.43 -0.97 0.0166014 0.0317345 0.00974964 0.00972952 2.54074e-06 0.00974528 1.71395e-07 273.04 
-0.47 -0.95 0.146496 0.132907 0.00975037 0.00972756 1.01446e-06 0.0097387 1.71372e-07 272.893 
-0.37 -0.99 -0.179162 -0.0414106 0.00974185 0.00972904 8.28151e-06 0.00973731 1.71284e-07 272.994 
-0.41 -0.97 -0.184318 -0.156348 0.00974379 0.00972827 4.57036e-06 0.00973864 1.71354e-07 272.919 
-0.45 -0.95 0.225826 -0.111135 0.00975775 0.00973977 6.80927e-06 0.00975516 1.71598e-07 272.994 
-0.49 -0.93 0.00530956 0.0833986 0.0097665 0.00972046 -6.62598e-08 0.00974687 1.71471e-07 272.963 
-0.35 -0.99 -0.0728732 -0.100857 0.00973388 0.00970641 5.56407e-06 0.00971736 1.71025e-07 272.847 
-0.39 -0.97 -0.0625846 0.0229969 0.00974009 0.00972543 6.1854e-06 0.00973861 1.71384e-07 272.871 
-0.43 -0.95 0.12962 0.0575075 0.00975712 0.00972524 7.90709e-06 0.00974735 1.71522e-07 272.895 
-0.47 -0.93 0.0535033 -0.00580718 0.00976011 0.00972494 1.15646e-06 0.00974477 1.71487e-07 272.879 
-0.33 -0.99 -0.00607678 0.039863 0.00973517 0.0097281 5.47754e-06 0.00972877 1.71242e-07 272.821 
-0.37 -0.97 0.00105813 -0.119605 0.00973845 0.00972875 6.05077e-06 0.00974067 1.71321e-07 273.029 
-0.41 -0.95 0.0624129 0.0586001 0.00975798 0.00973125 4.13093e-06 0.00974578 1.71552e-07 272.805 
-0.45 -0.93 -0.041647 0.0533984 0.00975663 0.00973347 4.2031e-06 0.00974629 1.71535e-07 272.846 
-0.49 -0.91 0.0119797 0.149103 0.00977314 0.00972712 1.1522e-05 0.00975367 1.71465e-07 273.164 
-0.35 -0.97 -0.0492689 -0.0435712 0.00973726 0.00971024 8.85805e-06 0.00972981 1.71189e-07 272.935 
-0.39 -0.95 -0.125804 -0.090207 0.00975248 0.00972414 7.07207e-06 0.00973963 1.71463e-07 272.773 
-0.43 -0.93 -0.0697288 0.0697516 0.00975744 0.00972821 3.22062e-06 0.00973996 1.7143e-07 272.835 
-0.47 -0.91 -0.176015 -0.010527 0.00976336 0.0097256 6.43609e-06 0.00974441 1.71501e-07 272.848 
-0.33 -0.97 -0.119609 -0.0194394 0.00974171 0.00972513 3.10762e-06 0.00973825 1.71436e-07 272.778 
-0.37 -0.95 -0.118117 -0.100471 0.00975504 0.00972208 1.19084e-05 0.00974303 1.71305e-07 273.12 
-0.41 -0.93 -0.052459 0.0648431 0.00975482 0.00972584 1.14943e-05 0.00973495 1.71334e-07 272.848 
-0.45 -0.91 -0.0196523 0.018292 0.00976484 0.00972855 5.30403e-06 0.00975224 1.71555e-07 272.98 
-0.49 -0.89 -0.00597356 0.0944966 0.00976816 0.00972762 1.13339e-05 0.0097497 1.7146e-07 273.061 
-0.35 -0.95 -0.0531176 -0.0273578 0.0097568 0.00971943 4.15657e-06 0.00974217 1.71394e-07 272.954 
-0.39 -0.93 0.0504579 -0.0782027 0.00975319 0.00972642 8.04615e-06 0.0097417 1.71589e-07 272.631 
-0.43 -0.91 -0.0924385 0.0489131 0.00975721 0.00973098 8.79901e-06 0.00974233 1.71327e-07 273.066 
-0.47 -0.89 0.118851 0.0796735 0.00976926 0.00973245 8.6934e-06 0.0097503 1.71586e-07 272.877 
-0.37 -0.93 -0.0364652 -0.0154925 0.00975367 0.0097218 3.24355e-06 0.00974409 1.71398e-07 273.002 
-0.41 -0.91 -0.0264408 -0.0113732 0.00976562 0.00971994 5.08868e-06 0.00974248 1.71401e-07 272.952 
-0.45 -0.89 -0.0792081 0.113563 0.00976075 0.00972154 4.1658e-06 0.00974274 1.71414e-07 272.939 
-0.49 -0.87 -0.0257335 0.123892 0.00975097 0.00971692 -3.66336e-07 0.00973446 1.71337e-07 272.829 
-0.35 -0.93 -0.365971 0.0359174 0.00975454 0.0097215 9.50614e-06 0.0097373 1.71401e-07 272.807 
-0.39 -0.91 -0.0914486 -0.0573875 0.0097689 0.00973101 1.23822e-05 0.00975335 1.71708e-07 272.768 
-0.43 -0.89 -0.134611 0.0290384 0.00976859 0.00973919 5.60762e-06 0.00975365 1.71516e-07 273.081 
-0.47 -0.87 0.0631442 0.0978312 0.00975822 0.00973234 9.11719e-06 0.00974196 1.71394e-07 272.949 
-0.37 -0.91 -0.208917 0.236333 0.00975691 0.00972133 1.13966e-05 0.00973953 1.71592e-07 272.565 
-0.41 -0.89 -0.158504 -0.0216393 0.00976115 0.00971392 4.01357e-06 0.00974225 1.71504e-07 272.781 
-0.45 -0.87 -0.0952067 0.123529 0.00976604 0.00972222 9.43621e-06 0.00975046 1.71513e-07 272.997 
-0.49 -0.85 -0.0399314 0.125291 0.00975452 0.00971414 -2.36718e-07 0.00973331 1.71238e-07 272.955 
-0.35 -0.91 -0.138991 0.137793 0.00975034 0.00972296 4.35921e-06 0.00973662 1.71435e-07 272.734 
-0.39 -0.89 -0.116744 0.140284 0.00975688 0.0097207 1.27557e-05 0.00974637 1.71532e-07 272.852 
-0.43 -0.87 -0.0964148 0.145608 0.00975354 0.00974012 1.08699e-05 0.00975008 1.71581e-07 272.878 
-0.47 -0.85 -0.155357 0.175451 0.00975835 0.00972603 1.47334e-06 0.00974668 1.71373e-07 273.114 
-0.33 -0.91 -0.227993 -0.0574674 0.00975291 0.00971831 1.23864e-05 0.00973851 1.71429e-07 272.797 
-0.37 -0.89 -0.21384 0.111336 0.00976367 0.00973114 1.78635e-05 0.0097538 1.71657e-07 272.861 
-0.41 -0.87 -0.21202 -0.0157917 0.00975556 0.00971641 8.47192e-06 0.0097372 1.71495e-07 272.655 
-0.45 -0.85 -0.111227 0.172082 0.00976045 0.00971852 8.4396e-06 0.0097443 1.71387e-07 273.025 
-0.35 -0.89 -0.221654 0.168753 0.00976553 0.00972175 1.11623e-05 0.00974084 1.71471e-07 272.795 
-0.39 -0.87 -0.29398 0.122903 0.00976233 0.00971574 6.59295e-06 0.00974316 1.71512e-07 272.794 
-0.43 -0.85 -0.22129 0.15368 0.00976917 0.00974158 9.29698e-06 0.00974995 1.71647e-07 272.771 
-0.37 -0.87 -0.348387 0.217113 0.00976897 0.00973005 8.9665e-06 0.00975178 1.71586e-07 272.918 
-0.41 -0.85 -0.176443 0.0939882 0.00976901 0.00972013 9.39335e-06 0.00974739 1.7163e-07 272.725 
-0.35 -0.87 -0.322689 0.107503 0.00977008 0.00972303 1.16696e-05 0.00974459 1.71455e-07 272.925 
-0.39 -0.85 -0.29284 0.329067 0.0097668 0.00971659 1.74884e-06 0.00974848 1.71566e-07 272.857 
-0.33 -0.87 -0.357014 0.104653 0.00976797 0.00972333 1.33467e-05 0.00974824 1.71553e-07 272.871 
-0.37 -0.85 -0.322795 0.0678571 0.00976833 0.00972492 8.6089e-06 0.00974718 1.71512e-07 272.908 
-0.35 -0.85 -0.288284 0.16892 0.00976533 0.00971935 1.29605e-05 0.00974259 1.71347e-07 273.041 
-0.33 -0.85 -0.432599 0.255841 0.00976599 0.00972396 1.4163e-05 0.00974207 1.71423e-07 272.905 
-0.31 -0.99 0.0482931 -0.0263491 0.00973194 0.00971503 1.38365e-05 0.00972147 1.71204e-07 272.677 
-0.29 -0.99 -0.0625763 0.0761051 0.00973337 0.00971858 9.58984e-06 0.00973078 1.71234e-07 272.89 
-0.27 -0.99 -0.142222 0.0106887 0.00974273 0.00972776 6.6391e-06 0.00973376 1.71167e-07 273.081 
-0.31 -0.97 -0.340067 -0.0233656 0.00974798 0.00972 4.77476e-06 0.00973566 1.71408e-07 272.749 
-0.29 -0.97 -0.395703 0.251076 0.00975522 0.00971858 9.87584e-06 0.00974713 1.71531e-07 272.875 
-0.33 -0.95 -0.0810338 0.0920229 0.00975124 0.00972198 8.53387e-06 0.00973842 1.71366e-07 272.894 
-0.27 -0.97 -0.302668 -0.0615756 0.00974493 0.00972271 1.06529e-05 0.00973828 1.71365e-07 272.892 
-0.31 -0.95 -0.200176 0.262597 0.00974766 0.00971934 7.25757e-06 0.0097321 1.7136e-07 272.727 
-0.29 -0.95 -0.153962 0.0899268 0.00974265 0.00970788 7.82192e-06 0.00972527 1.71278e-07 272.665 
-0.33 -0.93 -0.313668 0.131469 0.00975794 0.00971789 3.84704e-06 0.00973673 1.71314e-07 272.93 
-0.27 -0.95 -0.27626 -0.0265394 0.00974872 0.00972875 7.26111e-06 0.00974095 1.71366e-07 272.966 
-0.31 -0.93 -0.107771 0.105465 0.00975872 0.00971824 1.02861e-05 0.00973924 1.7157e-07 272.593 
-0.29 -0.93 -0.163523 0.216221 0.0097598 0.0097109 9.04152e-06 0.00973812 1.71485e-07 272.696 
-0.27 -0.93 -0.201907 0.114064 0.0097581 0.00972209 1.00216e-05 0.00974371 1.71517e-07 272.802 
-0.31 -0.91 -0.24044 0.172068 0.00975248 0.00971719 9.41959e-06 0.0097389 1.71468e-07 272.746 
-0.29 -0.91 -0.222561 0.0945089 0.0097509 0.00971143 3.50097e-06 0.00973059 1.71357e-07 272.689 
-0.33 -0.89 -0.245772 0.0032072 0.00975771 0.0097228 7.80256e-06 0.00974304 1.71442e-07 272.902 
-0.27 -0.91 -0.0634838 0.148783 0.00975508 0.00971852 5.84596e-06 0.00973454 1.71432e-07 272.68 
-0.31 -0.89 -0.219961 0.151899 0.00976114 0.00971945 3.66083e-06 0.00974734 1.71542e-07 272.864 
-0.29 -0.89 -0.215501 0.045884 0.00975733 0.00971178 8.53323e-06 0.00974108 1.71348e-07 272.997 
-0.27 -0.89 -0.341515 0.255541 0.00975037 0.00971522 9.30467e-06 0.00974082 1.71417e-07 272.88 
-0.31 -0.87 -0.450557 0.185342 0.00975928 0.00972146 8.96629e-06 0.00973989 1.71461e-07 272.785 
-0.29 -0.87 -0.440288 0.0565079 0.00975497 0.00970661 9.14153e-06 0.00973698 1.71327e-07 272.915 
-0.27 -0.87 -0.416838 0.237398 0.00975699 0.00971822 1.45221e-05 0.00974204 1.71419e-07 272.911 
-0.31 -0.85 -0.398916 -0.0158378 0.00976529 0.00972418 1.83957e-05 0.00974706 1.71509e-07 272.909 
-0.29 -0.85 -0.260985 0.1728 0.00975747 0.00970691 1.36589e-05 0.00974096 1.71394e-07 272.921 
-0.27 -0.85 -0.286379 0.137218 0.0097551 0.00971627 1.01474e-05 0.00973918 1.71193e-07 273.192 
-0.25 -0.99 -0.240155 0.0760896 0.00974663 0.00973325 1.19444e-05 0.00974191 1.71378e-07 272.974 
-0.25 -0.97 -0.183183 0.0818603 0.00974585 0.00972751 7.77124e-06 0.00973939 1.7147e-07 272.755 
-0.25 -0.95 -0.419565 0.0568109 0.00974526 0.00972826 1.00121e-05 0.00973896 1.71356e-07 272.926 
-0.25 -0.93 -0.192319 0.0988511 0.00975812 0.00973305 1.27014e-05 0.00974419 1.71537e-07 272.784 
-0.25 -0.91 -0.244937 0.141495 0.00975635 0.00973024 1.02603e-05 0.00974546 1.71578e-07 272.754 
-0.25 -0.89 -0.316431 0.199189 0.00974934 0.00972227 1.40329e-05 0.0097375 1.71339e-07 272.912 
-0.25 -0.87 -0.425437 0.226914 0.00975084 0.00971609 1.55305e-05 0.00973805 1.71296e-07 272.996 
-0.25 -0.85 -0.242332 0.315842 0.00976231 0.00971786 1.07428e-05 0.00974607 1.7138e-07 273.087 
-0.25 -0.83 -0.435155 0.2433 0.00975914 0.00971268 8.64172e-06 0.00974228 1.71338e-07 273.047 
-0.33 -0.81 -0.076295 0.239046 0.0097631 0.00971214 1.37031e-05 0.00974053 1.71465e-07 272.796 
-0.31 -0.81 -0.218574 0.135273 0.00977766 0.00972449 1.41203e-05 0.00975428 1.71508e-07 273.112 
-0.29 -0.81 -0.288315 0.137301 0.00977933 0.00972394 1.15062e-05 0.00975503 1.71517e-07 273.119 
-0.27 -0.81 -0.349386 0.302483 0.0097733 0.00971644 1.33636e-05 0.00975178 1.71453e-07 273.13 
-0.31 -0.79 -0.267091 0.186413 0.00975641 0.00971974 7.82432e-06 0.00973989 1.71453e-07 272.797 
-0.29 -0.79 -0.378154 0.352891 0.00975996 0.0097194 1.28609e-05 0.00973938 1.71479e-07 272.74 
-0.33 -0.77 -0.311187 0.341582 0.00977007 0.00972346 1.83721e-05 0.00974551 1.71498e-07 272.883 
-0.27 -0.79 -0.458619 0.238328 0.00976375 0.00971261 1.54843e-05 0.00974122 1.71398e-07 272.922 
-0.31 -0.77 -0.304035 0.185244 0.00976511 0.00971823 1.27151e-05 0.00974511 1.71537e-07 272.81 
-0.29 -0.77 -0.301701 0.369602 0.00975529 0.00971602 1.10335e-05 0.0097397 1.71567e-07 272.61 
-0.27 -0.77 -0.381797 0.262532 0.00975529 0.0097092 1.06661e-05 0.00973712 1.71391e-07 272.818 
-0.31 -0.75 -0.185217 0.375914 0.00976136 0.00972051 1.44078e-05 0.0097496 1.71609e-07 272.821 
-0.29 -0.75 -0.497182 0.377184 0.00976248 0.00971969 1.60366e-05 0.00974827 1.71577e-07 272.834 
-0.27 -0.75 -0.468413 0.502896 0.0097619 0.00970723 1.79885e-05 0.00973428 1.71319e-07 272.853 
-0.49 -0.83 -0.0559603 0.279981 0.00975292 0.00971761 -2.16289e-06 0.00973604 1.71338e-07 272.872 
-0.47 -0.83 -0.145057 0.144978 0.00975204 0.00972044 2.68685e-06 0.0097377 1.71556e-07 272.572 
-0.45 -0.83 -0.188342 0.229225 0.00975331 0.00972008 1.00684e-07 0.00973942 1.7144e-07 272.804 
-0.49 -0.81 -0.016171 0.326336 0.0097607 0.00972021 3.66135e-07 0.00974227 1.71472e-07 272.832 
-0.43 -0.83 -0.139928 0.203045 0.00975511 0.00972682 5.20672e-06 0.00974194 1.71504e-07 272.772 
-0.47 -0.81 -0.111385 0.223186 0.00976037 0.00971966 -1.23382e-06 0.00974467 1.71492e-07 272.868 
-0.45 -0.81 -0.0837063 0.220708 0.00976545 0.00972354 1.66184e-06 0.00974378 1.71498e-07 272.834 
-0.49 -0.79 -0.0266117 0.475557 0.00976021 0.00972298 3.59448e-06 0.0097424 1.71458e-07 272.86 
-0.43 -0.81 -0.114045 0.263156 0.00976172 0.00971556 3.35287e-06 0.00974147 1.71597e-07 272.613 
-0.47 -0.79 -0.0060999 0.115078 0.00975666 0.00972045 -5.6273e-06 0.00974163 1.71427e-07 272.888 
-0.41 -0.81 -0.274872 0.219021 0.00976522 0.0097325 1.12562e-05 0.00975444 1.716e-07 272.97 
-0.45 -0.79 -0.0543311 0.261396 0.00975714 0.00971783 1.99232e-06 0.00973526 1.71427e-07 272.709 
-0.49 -0.77 0.0448082 0.362325 0.00975847 0.00972435 4.72114e-06 0.00974568 1.71428e-07 272.999 
-0.39 -0.81 -0.292787 0.238297 0.00975616 0.00971619 1.4809e-05 0.0097433 1.71581e-07 272.688 
-0.43 -0.79 -0.316941 0.436956 0.00976505 0.00971481 2.07113e-06 0.00973871 1.71508e-07 272.677 
-0.47 -0.77 -0.0247589 0.30737 0.00975728 0.00972742 3.50715e-06 0.00974571 1.71411e-07 273.027 
-0.37 -0.81 -0.0424011 0.0921349 0.0097554 0.00971726 9.60344e-06 0.00973597 1.71529e-07 272.567 
-0.41 -0.79 -0.33386 0.288191 0.00976743 0.00972519 7.92363e-06 0.0097502 1.71671e-07 272.739 
-0.45 -0.77 -0.342861 0.464589 0.00975558 0.00971371 -4.56437e-06 0.00973593 1.71435e-07 272.715 
-0.35 -0.81 -0.0213373 0.200276 0.00975005 0.00971413 6.43332e-06 0.00973796 1.71428e-07 272.783 
-0.39 -0.79 -0.217637 0.110476 0.00976898 0.00971676 1.02867e-05 0.00974359 1.71631e-07 272.618 
-0.43 -0.77 -0.251672 0.435886 0.00975226 0.00971253 8.00955e-07 0.00973445 1.71421e-07 272.695 
-0.37 -0.79 -0.2185 0.0715021 0.00977672 0.00971723 1.18515e-05 0.00974618 1.7158e-07 272.771 
-0.41 -0.77 -0.203096 0.118294 0.00975325 0.00971266 8.19531e-06 0.00973514 1.71394e-07 272.758 
-0.35 -0.79 -0.19791 0.140259 0.00977469 0.00971759 1.53852e-05 0.00974767 1.71592e-07 272.794 
-0.39 -0.77 -0.0800211 0.122589 0.00975475 0.00972319 1.18914e-05 0.00974451 1.71596e-07 272.699 
-0.43 -0.75 0.0425558 0.164629 0.00976528 0.00971129 -2.56297e-06 0.00974199 1.71468e-07 272.832 
-0.33 -0.79 -0.243421 0.294095 0.00975968 0.00971379 6.48773e-06 0.0097366 1.71414e-07 272.767 
-0.37 -0.77 -0.146187 0.169711 0.00975642 0.00971372 4.79337e-06 0.00973714 1.71449e-07 272.725 
-0.41 -0.75 -0.0129184 0.323678 0.00976679 0.00970389 5.67683e-06 0.00974241 1.71525e-07 272.752 
-0.35 -0.77 -0.370249 0.246541 0.00976494 0.00971483 9.57845e-06 0.00973831 1.71381e-07 272.867 
-0.39 -0.75 -0.252148 0.154748 0.00977353 0.00972465 6.86368e-06 0.00975335 1.71692e-07 272.794 
-0.49 -0.75 -0.0335997 0.325326 0.00976533 0.00972886 8.27306e-06 0.0097498 1.71466e-07 273.054 
-0.47 -0.75 -0.0844432 0.490533 0.00976394 0.00973261 5.45464e-06 0.0097433 1.71338e-07 273.075 
-0.45 -0.75 -0.0948051 0.552376 0.00976098 0.00971115 3.79114e-07 0.00973278 1.71448e-07 272.606 
-0.49 -0.73 -0.0966109 0.502994 0.0097725 0.00972205 7.31867e-06 0.0097469 1.71423e-07 273.041 
-0.47 -0.73 -0.190448 0.44841 0.00977508 0.00974153 4.71955e-06 0.00975335 1.7145e-07 273.179 
-0.45 -0.73 -0.0800109 0.319356 0.0097755 0.00971774 -4.31894e-06 0.00974207 1.7146e-07 272.847 
-0.49 -0.71 0.0138664 0.60162 0.00977254 0.00972054 8.81181e-07 0.00974457 1.71529e-07 272.807 
-0.43 -0.73 -0.0490327 0.352042 0.00976478 0.00970511 5.82394e-06 0.00973709 1.71392e-07 272.816 
-0.47 -0.71 -0.010502 0.495721 0.00977389 0.00974011 2.19726e-06 0.00975534 1.71497e-07 273.159 
-0.37 -0.75 -0.206795 0.104736 0.00976431 0.00971371 1.30012e-05 0.00973784 1.71475e-07 272.704 
-0.41 -0.73 -0.126755 0.330244 0.00976275 0.00970201 -6.38077e-07 0.00973806 1.71535e-07 272.615 
-0.45 -0.71 0.0903095 0.240862 0.00976352 0.00971753 9.66722e-06 0.00974031 1.71334e-07 272.998 
-0.49 -0.69 0.0474729 0.52964 0.00976386 0.00971663 -6.29252e-06 0.00974249 1.71441e-07 272.889 
-0.35 -0.75 -0.0463783 0.292671 0.00975645 0.00971028 1.12464e-05 0.00973416 1.7135e-07 272.8 
-0.39 -0.73 -0.144789 0.184899 0.00976331 0.00970989 1.11444e-05 0.00973954 1.71399e-07 272.873 
-0.43 -0.71 -0.0865921 0.375301 0.0097634 0.00970669 4.80931e-06 0.00973758 1.71526e-07 272.616 
-0.47 -0.69 0.161963 0.452235 0.00976923 0.00972898 4.4318e-06 0.00974996 1.7145e-07 273.083 
-0.37 -0.73 -0.325514 0.153226 0.00976971 0.00972015 1.30502e-05 0.0097446 1.71526e-07 272.812 
-0.41 -0.71 -0.0698917 0.463471 0.00976789 0.00969679 3.10326e-06 0.00973855 1.71659e-07 272.433 
-0.45 -0.69 -0.0574552 0.409565 0.00977898 0.00971707 1.03532e-05 0.00975117 1.71596e-07 272.886 
-0.35 -0.73 -0.571242 0.416111 0.00976878 0.00971123 1.11552e-05 0.0097434 1.71558e-07 272.728 
-0.39 -0.71 -0.19608 0.24359 0.00976718 0.00971359 2.73324e-06 0.00973944 1.71494e-07 272.719 
-0.43 -0.69 -0.133849 0.467975 0.00977854 0.00971507 8.9212e-06 0.00975398 1.71826e-07 272.598 
-0.33 -0.73 -0.394166 0.147511 0.00976926 0.00970782 1.59137e-05 0.00974091 1.71582e-07 272.621 
-0.37 -0.71 -0.16496 0.251754 0.00976559 0.0097124 1.36179e-05 0.00974322 1.71538e-07 272.755 
-0.41 -0.69 -0.144854 0.392716 0.00977012 0.00970244 3.63861e-06 0.00973907 1.71646e-07 272.467 
-0.35 -0.71 -0.255096 0.48126 0.00976679 0.00970695 9.9236e-06 0.00974488 1.71559e-07 272.768 
-0.39 -0.69 -0.130679 0.409229 0.00976297 0.0097026 8.34222e-06 0.00973573 1.71402e-07 272.761 
-0.37 -0.69 -0.314765 0.335199 0.00976295 0.00971155 1.23586e-05 0.00974123 1.71506e-07 272.749 
-0.35 -0.69 -0.303204 0.517114 0.00976389 0.00970431 1.25652e-05 0.00973386 1.71362e-07 272.773 
-0.35 -0.67 -0.249797 0.457257 0.00977406 0.00971568 1.09663e-05 0.00974449 1.71477e-07 272.887 
-0.33 -0.67 -0.338256 0.508376 0.00976046 0.00970468 8.61878e-06 0.00974153 1.71546e-07 272.695 
-0.33 -0.75 -0.112024 0.23742 0.00975685 0.00971538 1.21796e-05 0.00973654 1.7135e-07 272.867 
-0.31 -0.73 -0.421237 0.481248 0.00976772 0.00972587 1.47571e-05 0.0097517 1.71617e-07 272.866 
-0.29 -0.73 -0.310647 0.493018 0.00977215 0.00971173 1.48098e-05 0.00975168 1.71567e-07 272.945 
-0.33 -0.71 -0.515567 0.116231 0.00976468 0.0097121 1.45692e-05 0.00974163 1.71499e-07 272.772 
-0.27 -0.73 -0.423678 0.536205 0.00976677 0.00971728 1.94971e-05 0.00974829 1.7146e-07 273.02 
-0.31 -0.71 -0.38982 0.427361 0.00976568 0.00972429 1.54637e-05 0.00974793 1.71584e-07 272.814 
-0.29 -0.71 -0.482896 0.454345 0.00975985 0.00970698 1.9433e-05 0.00974052 1.71337e-07 272.999 
-0.33 -0.69 -0.343682 0.266191 0.00977405 0.00971347 5.81548e-06 0.00974652 1.71682e-07 272.619 
-0.27 -0.71 -0.407363 0.519836 0.00976444 0.00971292 1.4598e-05 0.00974068 1.71303e-07 273.057 
-0.31 -0.69 -0.586393 0.435776 0.00977586 0.00971617 1.52524e-05 0.00974969 1.71602e-07 272.834 
-0.29 -0.69 -0.507215 0.536642 0.00977729 0.00971381 1.87188e-05 0.00975167 1.71588e-07 272.911 
-0.27 -0.69 -0.519636 0.393079 0.00977746 0.00971705 1.50041e-05 0.00974722 1.71351e-07 273.164 
-0.31 -0.67 -0.410872 0.527625 0.00975913 0.00971139 1.42441e-05 0.00973928 1.71474e-07 272.746 
-0.29 -0.67 -0.44547 0.396357 0.00976419 0.00971323 1.57143e-05 0.00974142 1.71312e-07 273.065 
-0.41 -0.83 -0.186582 0.164197 0.00975702 0.00972963 9.10759e-06 0.00974477 1.71567e-07 272.752 
-0.39 -0.83 -0.190091 0.339003 0.00975607 0.0097182 5.78941e-06 0.00973358 1.71419e-07 272.675 
-0.37 -0.83 -0.216631 0.226052 0.00974891 0.00971652 6.89395e-06 0.00973234 1.71257e-07 272.897 
-0.35 -0.83 -0.26864 0.0833132 0.0097563 0.00971726 1.66036e-05 0.00973567 1.71348e-07 272.846 
-0.33 -0.83 -0.189212 0.31851 0.00975445 0.00972244 1.43536e-05 0.00973719 1.71259e-07 273.031 
-0.31 -0.83 -0.164367 -0.200643 0.00974892 0.00971398 1.97839e-05 0.00973931 1.71457e-07 272.774 
-0.29 -0.83 -0.237978 0.188785 0.00975616 0.00972067 1.70334e-05 0.00974704 1.71334e-07 273.186 
-0.27 -0.83 -0.347806 0.275653 0.0097571 0.00971713 7.64399e-06 0.00974552 1.71373e-07 273.082 
-0.27 -0.67 -0.470681 0.500167 0.00976144 0.00971743 1.78914e-05 0.00974121 1.71338e-07 273.016 
-0.25 -0.67 -0.494277 0.472293 0.00977242 0.00972223 1.30698e-05 0.00975402 1.71424e-07 273.239 
-0.25 -0.81 -0.298516 0.308889 0.00976047 0.00971348 8.336e-06 0.00974346 1.71404e-07 272.975 
-0.25 -0.79 -0.360192 0.188464 0.00976777 0.00972312 1.98406e-05 0.00974458 1.71425e-07 272.973 
-0.35 -0.55 -0.250952 0.755584 0.0097816 0.0097109 7.08701e-06 0.00974427 1.71419e-07 272.973 
-0.39 -0.53 -0.309066 0.908989 0.0097747 0.00969146 4.3677e-06 0.00973753 1.71398e-07 272.818 
-0.37 -0.57 -0.254504 0.767307 0.00976782 0.0097031 1.31925e-05 0.00974175 1.7132e-07 273.06 
-0.41 -0.55 -0.216093 0.899798 0.00976015 0.00969868 7.56871e-06 0.00973639 1.71411e-07 272.766 
-0.45 -0.53 -0.0956638 0.589752 0.0097617 0.00969355 -6.16876e-07 0.00972703 1.71271e-07 272.726 
-0.35 -0.57 -0.240298 0.745909 0.00977555 0.00970249 2.0285e-05 0.00974146 1.71423e-07 272.889 
-0.39 -0.55 -0.334009 0.73742 0.00976125 0.0096868 5.08661e-06 0.00973356 1.71282e-07 272.892 
-0.43 -0.53 -0.210029 0.812199 0.00976607 0.00969211 5.05236e-06 0.00973146 1.71419e-07 272.615 
-0.47 -0.51 -0.0481632 0.761771 0.0097693 0.00970124 -1.59504e-07 0.00973702 1.71505e-07 272.634 
-0.37 -0.55 -0.302954 0.753898 0.00976524 0.00969301 8.4407e-06 0.0097364 1.71217e-07 273.075 
-0.41 -0.53 -0.267222 0.776431 0.00977125 0.00970054 5.34432e-06 0.00973632 1.71449e-07 272.703 
-0.45 -0.51 -0.286487 0.690834 0.00976762 0.00969109 3.62359e-06 0.00973418 1.71418e-07 272.692 
-0.37 -0.53 -0.308455 0.71254 0.00977787 0.00969424 -1.23479e-06 0.0097397 1.71436e-07 272.818 
-0.41 -0.51 -0.309144 0.828418 0.00976557 0.00970036 -1.00209e-06 0.00973609 1.71423e-07 272.739 
-0.35 -0.53 -0.397911 0.77896 0.00977314 0.00970493 7.43743e-06 0.00973964 1.71484e-07 272.74 
-0.39 -0.51 -0.355226 0.867381 0.00977104 0.00969128 4.991e-07 0.00973353 1.71432e-07 272.653 
-0.37 -0.51 -0.416959 0.795297 0.00976816 0.00969044 5.16177e-06 0.00973164 1.71293e-07 272.821 
-0.35 -0.51 -0.430309 0.805101 0.00976567 0.00969828 1.10898e-05 0.00972723 1.71325e-07 272.646 
-0.49 -0.65 -0.0504541 0.491055 0.00977202 0.00972374 6.8151e-06 0.00974978 1.71516e-07 272.974 
-0.47 -0.65 -0.0972734 0.424648 0.00976841 0.00971475 1.77374e-06 0.00974589 1.71497e-07 272.895 
-0.45 -0.65 -0.0437952 0.645466 0.00976264 0.00971965 7.01781e-06 0.00974617 1.7165e-07 272.659 
-0.49 -0.63 0.00661513 0.484575 0.0097683 0.0097274 3.39102e-06 0.0097556 1.71807e-07 272.674 
-0.43 -0.65 0.041469 0.579687 0.00975642 0.00969861 6.12101e-06 0.00973469 1.71441e-07 272.67 
-0.47 -0.63 -0.00877967 0.521122 0.00976448 0.00970631 2.95613e-06 0.00974163 1.71584e-07 272.638 
-0.41 -0.65 0.0319418 0.565945 0.00976161 0.00970479 1.19695e-05 0.00973863 1.71422e-07 272.811 
-0.45 -0.63 -0.0473218 0.570346 0.00977337 0.00972044 8.02723e-06 0.0097518 1.71666e-07 272.792 
-0.49 -0.61 -0.034635 0.560034 0.00975973 0.00971307 -5.00174e-06 0.00974303 1.71445e-07 272.898 
-0.39 -0.65 -0.0667848 0.4525 0.00976004 0.00971439 7.69049e-06 0.00974087 1.7132e-07 273.036 
-0.43 -0.63 -0.102463 0.593632 0.00977685 0.00970509 9.69125e-06 0.00974219 1.71354e-07 273.019 
-0.47 -0.61 -0.135007 0.494468 0.00976674 0.0097134 6.66727e-06 0.00974487 1.71504e-07 272.855 
-0.37 -0.65 -0.173982 0.48403 0.00975948 0.00969824 1.29059e-06 0.00972909 1.71135e-07 273.001 
-0.41 -0.63 -0.143862 0.627496 0.00977081 0.00969534 2.93384e-06 0.00973623 1.71365e-07 272.834 
-0.45 -0.61 -0.108977 0.649575 0.0097641 0.00970853 -2.86816e-06 0.00973973 1.71376e-07 272.915 
-0.49 -0.59 -0.0114211 0.524632 0.00977163 0.00970533 -5.98348e-06 0.00974711 1.71635e-07 272.709 
-0.35 -0.65 -0.251624 0.471963 0.00976847 0.00971363 1.14802e-05 0.00974007 1.7144e-07 272.822 
-0.39 -0.63 -0.115989 0.53948 0.00977958 0.00971871 1.32519e-05 0.00974978 1.71493e-07 273.01 
-0.43 -0.61 -0.0402884 0.649399 0.0097741 0.00970671 5.78307e-06 0.00974223 1.71388e-07 272.966 
-0.47 -0.59 0.108506 0.55896 0.00977973 0.00971463 -5.80475e-06 0.00975099 1.71537e-07 272.974 
-0.37 -0.63 -0.233733 0.463326 0.00976518 0.00969889 1.21863e-05 0.0097324 1.71209e-07 272.976 
-0.41 -0.61 -0.143121 0.574661 0.00977473 0.00970088 1.0515e-05 0.00973755 1.71329e-07 272.929 
-0.45 -0.59 0.0622074 0.494295 0.00977976 0.00970926 2.88553e-06 0.00975152 1.71543e-07 272.979 
-0.49 -0.57 -0.0676676 0.494274 0.00977818 0.00970777 -6.7826e-06 0.0097457 1.71509e-07 272.871 
-0.35 -0.63 -0.335035 0.580138 0.00975916 0.00970127 1.16526e-05 0.00973064 1.71273e-07 272.825 
-0.39 -0.61 -0.0920075 0.465799 0.00977342 0.00970569 9.91022e-06 0.00973864 1.71311e-07 272.987 
-0.43 -0.59 -0.0252372 0.782508 0.00977124 0.00969642 4.80988e-06 0.0097431 1.71512e-07 272.793 
-0.47 -0.57 -0.130494 0.490292 0.00976766 0.00970651 -5.06944e-06 0.00973584 1.71364e-07 272.825 
-0.37 -0.61 -0.138306 0.69647 0.00977683 0.00970551 1.44107e-05 0.00974115 1.71501e-07 272.756 
-0.41 -0.59 -0.00150003 0.560422 0.00977942 0.00970377 4.39325e-06 0.00974056 1.71393e-07 272.911 
-0.45 -0.57 -0.0932017 0.652838 0.00976821 0.0097 2.60024e-06 0.00973719 1.71351e-07 272.884 
-0.49 -0.55 -0.0344381 0.646759 0.00975568 0.00970383 -5.76211e-06 0.00973285 1.71338e-07 272.782 
-0.35 -0.61 -0.12574 0.584966 0.00977245 0.00969934 1.11451e-05 0.00973356 1.71338e-07 272.803 
-0.39 -0.59 -0.0482913 0.555847 0.0097747 0.00969099 9.4304e-06 0.00973741 1.71359e-07 272.876 
-0.43 -0.57 0.0484 0.675723 0.0097714 0.00969816 5.33651e-06 0.00973984 1.71365e-07 272.935 
-0.47 -0.55 -0.142287 0.618101 0.00976503 0.00969756 3.60225e-07 0.00973877 1.71492e-07 272.703 
-0.33 -0.61 -0.367699 0.616489 0.00976778 0.00969845 1.87745e-05 0.00973557 1.71267e-07 272.972 
-0.37 -0.59 -0.129561 0.67066 0.00977993 0.00971574 2.03137e-05 0.00975022 1.71573e-07 272.894 
-0.41 -0.57 -0.0543004 0.686977 0.00976277 0.00970028 1.1722e-05 0.00973573 1.71234e-07 273.029 
-0.45 -0.55 -0.177775 0.471959 0.00976186 0.00969758 3.26937e-06 0.00972841 1.71203e-07 272.874 
-0.49 -0.53 0.0460641 0.679386 0.00976458 0.00969614 -2.18867e-06 0.00973671 1.7136e-07 272.856 
-0.35 -0.59 -0.300946 0.722041 0.00977041 0.00969332 1.66004e-05 0.00972944 1.71347e-07 272.673 
-0.39 -0.57 -0.245856 0.729027 0.00976576 0.00968474 8.75384e-06 0.00973105 1.71182e-07 272.981 
-0.43 -0.55 -0.18361 0.605155 0.00975965 0.00969352 9.2336e-06 0.0097301 1.7133e-07 272.718 
-0.47 -0.53 0.0113403 0.589892 0.0097567 0.0096982 1.4446e-06 0.00972688 1.71218e-07 272.806 
-0.29 -0.57 -0.570485 0.701459 0.00977363 0.00971436 1.92652e-05 0.00974806 1.71458e-07 273.018 
-0.33 -0.55 -0.411603 0.888468 0.00978523 0.00970803 9.9168e-06 0.00974947 1.7151e-07 272.974 
-0.29 -0.61 -0.347249 0.527449 0.00977119 0.00972088 9.87181e-06 0.00974807 1.7165e-07 272.712 
-0.33 -0.59 -0.306346 0.859524 0.00976893 0.00970269 1.48949e-05 0.00973824 1.71304e-07 272.987 
-0.27 -0.61 -0.371583 0.520112 0.00977968 0.00971126 1.62493e-05 0.00974806 1.71617e-07 272.765 
-0.31 -0.59 -0.407921 0.672663 0.00977065 0.00971123 1.07913e-05 0.00974057 1.71457e-07 272.809 
-0.29 -0.59 -0.362044 0.42845 0.00977518 0.00972127 1.16073e-05 0.00974711 1.71606e-07 272.756 
-0.33 -0.57 -0.309512 0.797123 0.00977845 0.00971136 9.17159e-06 0.00974654 1.71435e-07 273.011 
-0.27 -0.59 -0.476483 0.653065 0.0097684 0.00970266 1.35249e-05 0.00973946 1.71473e-07 272.754 
-0.31 -0.57 -0.34261 0.7025 0.00977939 0.00970772 7.48701e-06 0.00974609 1.71546e-07 272.823 
-0.27 -0.57 -0.659532 0.678567 0.00976582 0.00970361 2.58614e-05 0.00974818 1.71578e-07 272.83 
-0.31 -0.55 -0.400026 0.936634 0.00977428 0.00970803 1.96724e-05 0.00974446 1.71474e-07 272.891 
-0.29 -0.55 -0.51534 0.703517 0.00976265 0.00969637 2.39414e-05 0.00973262 1.71262e-07 272.897 
-0.33 -0.53 -0.345008 1.05891 0.00977053 0.00969481 1.4326e-05 0.00973409 1.71253e-07 272.952 
-0.27 -0.55 -0.383776 0.592634 0.00976653 0.00971087 2.01692e-05 0.00974071 1.71399e-07 272.906 
-0.31 -0.53 -0.381752 0.768567 0.00977278 0.0097039 2.4948e-05 0.00974225 1.71504e-07 272.782 
-0.29 -0.53 -0.266454 0.689692 0.00978391 0.00970219 2.04572e-05 0.00974978 1.7152e-07 272.968 
-0.33 -0.51 -0.275594 0.894203 0.00976173 0.00969028 1.54464e-05 0.00972918 1.71134e-07 273.005 
-0.27 -0.53 -0.426588 0.771976 0.00977925 0.00971224 2.33971e-05 0.00974544 1.71473e-07 272.921 
-0.31 -0.51 -0.303798 0.862856 0.00976374 0.00969957 1.57611e-05 0.0097285 1.7129e-07 272.737 
-0.29 -0.51 -0.514158 0.836533 0.00975985 0.00970108 2.42869e-05 0.00973872 1.71472e-07 272.734 
-0.27 -0.51 -0.606621 0.963129 0.00975789 0.00970497 2.92717e-05 0.00973727 1.71335e-07 272.912 
-0.33 -0.65 -0.318026 0.446843 0.00977042 0.00970594 1.84758e-05 0.00973834 1.71286e-07 273.02 
-0.31 -0.65 -0.262793 0.589762 0.00976764 0.00971225 1.49346e-05 0.00974124 1.71329e-07 273.032 
-0.29 -0.65 -0.430224 0.526682 0.00975963 0.00970513 1.41279e-05 0.00973174 1.7116e-07 273.034 
-0.33 -0.63 -0.243036 0.502818 0.00976222 0.00970867 8.66453e-06 0.00974021 1.71406e-07 272.881 
-0.27 -0.65 -0.455201 0.462832 0.0097707 0.00972464 1.07875e-05 0.00974735 1.71507e-07 272.92 
-0.31 -0.63 -0.406846 0.667893 0.00976327 0.00970509 1.8223e-05 0.00973715 1.71292e-07 272.977 
-0.25 -0.65 -0.519133 0.429591 0.00976417 0.00971754 1.30898e-05 0.00974232 1.71452e-07 272.867 
-0.29 -0.63 -0.431129 0.452806 0.00977182 0.00971961 1.2688e-05 0.00974498 1.71506e-07 272.856 
-0.27 -0.63 -0.400618 0.51683 0.00976032 0.00971537 1.33005e-05 0.0097383 1.71479e-07 272.71 
-0.31 -0.61 -0.439066 0.61979 0.00977273 0.00971107 1.2406e-05 0.00974652 1.71604e-07 272.743 
-0.49 -0.67 0.0591945 0.463287 0.0097685 0.00971918 -7.40828e-06 0.00974283 1.715e-07 272.805 
-0.47 -0.67 0.0399571 0.43263 0.00976558 0.00972129 5.4117e-07 0.00974351 1.71521e-07 272.791 
-0.45 -0.67 0.0900586 0.560826 0.00976297 0.00971716 3.90625e-06 0.00974699 1.71551e-07 272.839 
-0.43 -0.67 -0.0754838 0.634234 0.00976823 0.00970829 7.01924e-06 0.0097424 1.71542e-07 272.726 