ITEM: TIMESTEP
896000
ITEM: NUMBER OF CELLS
5000
ITEM: BOX BOUNDS ss ss pp
-0.5 0.5
-1 1
-0.5 0.5
ITEM: CELLS xc yc f_U[*] f_V[*] f_Tau[1] f_Tau[2] f_Tau[3] f_Press[*] f_Mrho[*] f_Ttra[*] 
-0.49 -0.99 -0.0616186 0.105671 0.00975875 0.00973208 1.35539e-05 0.00975217 1.71733e-07 272.696 
-0.47 -0.99 -0.145901 -0.0955969 0.00974328 0.00971592 1.48039e-06 0.00973394 1.71442e-07 272.648 
-0.45 -0.99 -0.248844 0.095532 0.00974131 0.00972504 5.59245e-06 0.00973974 1.71419e-07 272.846 
-0.49 -0.97 -0.10858 0.15854 0.00973793 0.00972392 1.29906e-05 0.00973345 1.71271e-07 272.906 
-0.43 -0.99 -0.369575 0.032987 0.00973398 0.00973305 1.28049e-06 0.0097409 1.71236e-07 273.171 
-0.47 -0.97 -0.107021 0.0285899 0.00974444 0.00972174 1.2034e-05 0.0097394 1.71296e-07 273.033 
-0.41 -0.99 -0.123539 -0.132147 0.00972711 0.0097303 6.17697e-06 0.00973071 1.71305e-07 272.775 
-0.45 -0.97 -0.00843573 0.121653 0.00974238 0.00972873 1.70058e-06 0.00974081 1.71356e-07 272.977 
-0.49 -0.95 0.0677403 0.095724 0.00973038 0.00970749 -4.3625e-06 0.00972479 1.71114e-07 272.914 
-0.39 -0.99 -0.160643 0.076061 0.00972688 0.00970914 -3.27504e-06 0.00971153 1.70744e-07 273.131 
-0.43 -0.97 0.161166 -0.0236523 0.00975043 0.00973449 -1.11208e-06 0.00974265 1.71386e-07 272.981 
-0.47 -0.95 0.0359594 0.117212 0.0097444 0.0097271 1.76902e-06 0.00973428 1.71251e-07 272.961 
-0.37 -0.99 -0.220471 0.0418804 0.00972696 0.00971897 6.99903e-06 0.00972107 1.71041e-07 272.926 
-0.41 -0.97 -0.0395779 -0.197669 0.00973986 0.00972725 7.97463e-06 0.00973167 1.71112e-07 273.109 
-0.45 -0.95 0.113639 -0.205405 0.00974671 0.00974046 8.07391e-06 0.00974431 1.7152e-07 272.814 
-0.49 -0.93 -0.0513036 0.104193 0.00976439 0.00971929 2.4428e-06 0.00974068 1.71346e-07 272.99 
-0.35 -0.99 -0.142978 -0.147949 0.00970945 0.00968246 1.41726e-05 0.00969432 1.70676e-07 272.757 
-0.39 -0.97 0.199507 0.0289005 0.00973185 0.00971175 1.66694e-05 0.00972532 1.71088e-07 272.969 
-0.43 -0.95 0.139505 -0.00898497 0.0097464 0.0097197 9.63441e-06 0.00973331 1.71346e-07 272.783 
-0.47 -0.93 0.141278 -0.0385253 0.00975909 0.00971946 -1.57906e-06 0.00974008 1.71282e-07 273.074 
-0.33 -0.99 -0.0637667 0.0094081 0.00972346 0.00972486 2.61508e-06 0.00971396 1.71026e-07 272.75 
-0.37 -0.97 0.144862 -0.0152519 0.00972972 0.00971009 5.33422e-06 0.00972056 1.71068e-07 272.868 
-0.41 -0.95 0.0531144 -0.186755 0.00974411 0.00972766 7.09684e-06 0.00973515 1.71372e-07 272.793 
-0.45 -0.93 0.0389716 -0.0195732 0.00975593 0.00973268 1.80593e-06 0.00974034 1.7149e-07 272.75 
-0.49 -0.91 0.185321 -0.0290955 0.00977879 0.00972937 1.1783e-05 0.00975095 1.71328e-07 273.306 
-0.35 -0.97 -0.00483682 -0.049128 0.00973592 0.00969759 6.29045e-06 0.00971307 1.70934e-07 272.871 
-0.39 -0.95 0.0355398 -0.0509754 0.00973905 0.00971309 6.2057e-06 0.00972224 1.71259e-07 272.611 
-0.43 -0.93 0.0257343 -0.0818241 0.00974946 0.00971411 5.96728e-06 0.00972409 1.71083e-07 272.943 
-0.47 -0.91 -0.125966 0.0170119 0.00976876 0.00971634 2.80863e-06 0.00974147 1.71406e-07 272.915 
-0.33 -0.97 -0.121217 -0.088899 0.00973619 0.00972019 5.63547e-07 0.00973169 1.71358e-07 272.718 
-0.37 -0.95 -0.0776703 0.200321 0.00974636 0.00971417 2.11971e-05 0.00973517 1.7123e-07 273.02 
-0.41 -0.93 0.0608822 -0.139843 0.00975249 0.00973198 2.1546e-05 0.00973092 1.71319e-07 272.758 
-0.45 -0.91 0.0700824 -0.018461 0.00976549 0.00972464 1.20346e-05 0.00974506 1.71387e-07 273.046 
-0.49 -0.89 -0.11614 0.0569285 0.00977711 0.00973085 7.16006e-06 0.00975224 1.71524e-07 273.03 
-0.35 -0.95 -0.100686 -0.051031 0.0097498 0.00970673 -3.4154e-06 0.00972962 1.71345e-07 272.68 
-0.39 -0.93 -0.177906 0.0325774 0.00974194 0.00971384 1.18472e-05 0.00972428 1.71309e-07 272.588 
-0.43 -0.91 -0.15395 -0.0997214 0.00974843 0.00972078 1.54061e-05 0.00972966 1.71036e-07 273.175 
-0.47 -0.89 0.0649771 0.0342575 0.00976623 0.00972012 1.51543e-05 0.00974535 1.71607e-07 272.704 
-0.37 -0.93 0.0171809 0.12432 0.00974531 0.00971644 -3.8205e-06 0.00973314 1.71278e-07 272.887 
-0.41 -0.91 -0.216294 0.0866304 0.00975467 0.00971518 9.1838e-06 0.00972914 1.71306e-07 272.729 
-0.45 -0.89 -0.187547 0.0158526 0.00975963 0.00971504 8.40905e-06 0.00974112 1.7135e-07 272.995 
-0.49 -0.87 -0.0313787 0.129834 0.00973625 0.00971149 3.55351e-06 0.00972181 1.71078e-07 272.888 
-0.35 -0.93 -0.326504 0.132395 0.00974906 0.00971548 -6.67189e-09 0.00972334 1.71323e-07 272.54 
-0.39 -0.91 -0.139589 -0.0425381 0.00977331 0.00973338 1.23132e-05 0.00975573 1.71632e-07 272.955 
-0.43 -0.89 -0.187785 0.115106 0.00977454 0.00973147 1.25722e-05 0.00975227 1.71389e-07 273.245 
-0.47 -0.87 0.073359 0.0566233 0.00974913 0.00972313 6.28394e-06 0.00973711 1.71376e-07 272.842 
-0.37 -0.91 -0.175848 0.261011 0.00975743 0.00972604 -1.70052e-08 0.00974091 1.7157e-07 272.64 
-0.41 -0.89 -0.201554 0.0467069 0.00976996 0.00971559 2.54526e-06 0.00974769 1.71583e-07 272.808 
-0.45 -0.87 -0.153721 0.131827 0.00976168 0.00970891 8.91048e-06 0.00974469 1.71458e-07 272.924 
-0.49 -0.85 0.063219 0.140342 0.00973943 0.00971095 -3.36256e-06 0.00971796 1.71121e-07 272.711 
-0.35 -0.91 -0.0399929 0.177481 0.00975204 0.00971289 4.35659e-07 0.00972564 1.71233e-07 272.747 
-0.39 -0.89 -0.23429 0.0626343 0.00976794 0.00972282 7.51124e-06 0.00974161 1.71389e-07 272.946 
-0.43 -0.87 -0.151213 0.118394 0.00975377 0.00974224 9.20122e-06 0.00975203 1.71614e-07 272.881 
-0.47 -0.85 -0.0773367 0.214056 0.00974951 0.00971957 4.98446e-06 0.00973815 1.71361e-07 272.894 
-0.33 -0.91 -0.0600187 -0.00753396 0.00975324 0.00970579 4.8536e-06 0.00972966 1.71341e-07 272.688 
-0.37 -0.89 -0.358369 0.0831582 0.00977844 0.00974213 1.8265e-05 0.00975769 1.71394e-07 273.389 
-0.41 -0.87 -0.246946 0.149777 0.00975768 0.00972417 8.75918e-06 0.00974101 1.71576e-07 272.632 
-0.45 -0.85 -0.0974671 0.195668 0.00974741 0.00970778 8.33957e-06 0.00973144 1.71269e-07 272.853 
-0.35 -0.89 -0.263971 0.176259 0.00976555 0.00970342 8.69096e-06 0.00972453 1.71107e-07 272.917 
-0.39 -0.87 -0.187191 0.0165978 0.00975975 0.00971839 9.63779e-07 0.00973712 1.71571e-07 272.532 
-0.43 -0.85 -0.10132 0.0641128 0.00976623 0.00974054 -3.24898e-06 0.00974891 1.71613e-07 272.795 
-0.37 -0.87 -0.262323 0.144986 0.00976638 0.0097316 7.66508e-06 0.00974431 1.71447e-07 272.931 
-0.41 -0.85 -0.0518456 0.107537 0.00976672 0.00972437 7.15864e-06 0.00974678 1.71617e-07 272.729 
-0.35 -0.87 -0.192449 0.197998 0.00977772 0.00971858 6.75793e-06 0.00974366 1.71407e-07 272.976 
-0.39 -0.85 -0.232646 0.349961 0.00976781 0.00972797 -1.74036e-06 0.00974736 1.71591e-07 272.787 
-0.33 -0.87 -0.506893 -0.0298381 0.00977331 0.00971741 9.28973e-06 0.00974216 1.71468e-07 272.836 
-0.37 -0.85 -0.397711 -0.107448 0.00976493 0.0097185 5.2011e-06 0.00974633 1.71457e-07 272.971 
-0.35 -0.85 -0.387212 0.271188 0.00976292 0.00971844 9.47454e-06 0.00973968 1.71152e-07 273.271 
-0.33 -0.85 -0.49271 0.386349 0.00975753 0.00971887 1.23209e-05 0.00973343 1.71139e-07 273.116 
-0.31 -0.99 0.0320654 0.000708481 0.00971966 0.00969693 1.04059e-05 0.00970326 1.70994e-07 272.501 
-0.29 -0.99 -0.249746 0.293394 0.00972376 0.00970617 4.83704e-06 0.00970949 1.70985e-07 272.689 
-0.27 -0.99 -0.270669 -0.240774 0.00974911 0.00972712 7.80217e-06 0.00973588 1.71185e-07 273.112 
-0.31 -0.97 -0.444641 0.0322945 0.00974804 0.00970647 3.45625e-08 0.00973326 1.7133e-07 272.807 
-0.29 -0.97 -0.352846 0.260247 0.00975608 0.00971115 2.7995e-06 0.00974317 1.7158e-07 272.686 
-0.33 -0.95 -0.0939646 0.221394 0.00974846 0.00971609 1.52534e-06 0.00973265 1.71327e-07 272.795 
-0.27 -0.97 -0.135594 -0.233516 0.00974057 0.00971689 4.12324e-06 0.00973591 1.7144e-07 272.705 
-0.31 -0.95 -0.218732 0.207467 0.00973986 0.00970995 4.17077e-06 0.00972785 1.71308e-07 272.69 
-0.29 -0.95 -0.120076 0.0385077 0.00973181 0.00969364 5.32569e-06 0.00971259 1.712e-07 272.434 
-0.33 -0.93 -0.308788 0.233818 0.00975151 0.00970694 1.40849e-06 0.00972761 1.71262e-07 272.756 
-0.27 -0.95 -0.361816 -0.172363 0.00974189 0.00973687 1.95662e-06 0.00973416 1.71371e-07 272.766 
-0.31 -0.93 -0.137744 0.0889751 0.00975595 0.00970978 6.56203e-06 0.00973365 1.71542e-07 272.48 
-0.29 -0.93 -0.177135 0.0921956 0.00976008 0.00969586 4.58759e-06 0.00972709 1.71373e-07 272.566 
-0.27 -0.93 -0.106981 -0.0511749 0.00977548 0.00973669 -3.41961e-06 0.00975896 1.71647e-07 273.022 
-0.31 -0.91 -0.108982 0.298786 0.00975776 0.00970912 -5.46425e-07 0.00973847 1.71458e-07 272.749 
-0.29 -0.91 -0.215172 -0.0606187 0.00975941 0.00970803 -1.30489e-05 0.00972929 1.71308e-07 272.731 
-0.33 -0.89 -0.209635 -0.0378105 0.0097638 0.00971748 -1.24426e-06 0.00973237 1.71303e-07 272.825 
-0.27 -0.91 -0.0533547 -0.055779 0.00975618 0.00971863 1.34563e-06 0.00972835 1.71458e-07 272.466 
-0.31 -0.89 -0.141177 0.275568 0.00976919 0.00970976 -5.27614e-06 0.00974157 1.71606e-07 272.601 
-0.29 -0.89 -0.112424 -0.100379 0.00976304 0.00971134 -2.00308e-06 0.00973836 1.71338e-07 272.937 
-0.27 -0.89 -0.251448 -0.00937622 0.00974494 0.00970484 8.57299e-06 0.00973271 1.71382e-07 272.709 
-0.31 -0.87 -0.445479 0.115548 0.0097499 0.00971106 5.38097e-06 0.00972819 1.71376e-07 272.592 
-0.29 -0.87 -0.241458 -0.0805219 0.00973443 0.00969755 1.10975e-05 0.00972043 1.71191e-07 272.668 
-0.27 -0.87 -0.308916 0.276457 0.00974012 0.00971737 6.03594e-06 0.00972858 1.71328e-07 272.679 
-0.31 -0.85 -0.415017 -0.189887 0.00975649 0.00970696 2.0841e-05 0.00973108 1.71374e-07 272.675 
-0.29 -0.85 -0.279333 -0.0244788 0.0097511 0.00969809 1.64765e-05 0.00974046 1.71527e-07 272.696 
-0.27 -0.85 -0.445941 0.195502 0.0097493 0.00971831 4.49065e-06 0.00973694 1.71097e-07 273.282 
-0.25 -0.99 -0.21551 0.0922956 0.00975235 0.00974023 6.8963e-06 0.00974757 1.71357e-07 273.164 
-0.25 -0.97 -0.132325 0.206525 0.00974636 0.00974206 -4.99006e-06 0.0097449 1.71619e-07 272.673 
-0.25 -0.95 -0.394361 0.0905019 0.00973589 0.0097368 3.07846e-06 0.00973739 1.71396e-07 272.817 
-0.25 -0.93 -0.0730749 -0.00663901 0.00976587 0.00973396 9.49858e-06 0.00974951 1.71613e-07 272.812 
-0.25 -0.91 -0.0797531 0.0354334 0.00975702 0.00972369 1.59306e-05 0.00973907 1.71433e-07 272.805 
-0.25 -0.89 -0.473952 0.130481 0.00975215 0.00971922 1.06484e-05 0.00973233 1.71142e-07 273.081 
-0.25 -0.87 -0.447928 0.0463528 0.00973032 0.00970754 6.66981e-06 0.0097243 1.71004e-07 273.076 
-0.25 -0.85 -0.296482 0.336227 0.00975709 0.00971205 5.80384e-06 0.00973544 1.71205e-07 273.066 
-0.25 -0.83 -0.462409 0.157668 0.00976559 0.00970506 1.35693e-06 0.00974409 1.71162e-07 273.378 
-0.33 -0.81 -0.0103679 0.21308 0.00976317 0.0097039 8.66677e-06 0.00972806 1.71257e-07 272.777 
-0.31 -0.81 -0.246561 0.264344 0.00978469 0.00971628 7.686e-06 0.00974652 1.71273e-07 273.269 
-0.29 -0.81 -0.35222 0.0720582 0.00977721 0.00970733 3.03084e-06 0.0097446 1.71308e-07 273.161 
-0.27 -0.81 -0.439728 0.13588 0.00977678 0.00972007 7.65393e-06 0.00975587 1.71502e-07 273.167 
-0.31 -0.79 -0.1906 0.1099 0.00976041 0.00971173 2.47945e-06 0.00973039 1.7137e-07 272.662 
-0.29 -0.79 -0.332655 0.454367 0.00975618 0.00970587 8.26943e-06 0.00972324 1.71246e-07 272.66 
-0.33 -0.77 -0.432952 0.308673 0.00976635 0.0097233 1.36286e-05 0.00973867 1.71349e-07 272.929 
-0.27 -0.79 -0.557601 0.177095 0.00975096 0.00970892 7.29082e-06 0.00972951 1.7131e-07 272.733 
-0.31 -0.77 -0.36166 0.17618 0.0097486 0.00968982 9.19779e-06 0.00971583 1.71131e-07 272.635 
-0.29 -0.77 -0.351574 0.467779 0.00975903 0.00971677 1.21489e-05 0.00973484 1.71451e-07 272.659 
-0.27 -0.77 -0.469999 0.192798 0.00975954 0.00970039 9.10838e-06 0.00973199 1.71391e-07 272.674 
-0.31 -0.75 -0.10519 0.475837 0.00975434 0.00970913 7.45136e-06 0.00974282 1.7154e-07 272.74 
-0.29 -0.75 -0.491562 0.559951 0.00975093 0.0097092 7.30519e-06 0.00973458 1.71394e-07 272.741 
-0.27 -0.75 -0.59553 0.561697 0.00975229 0.00970548 1.20526e-05 0.00972482 1.71175e-07 272.817 
-0.49 -0.83 -0.115994 0.138767 0.0097561 0.00971716 3.45457e-06 0.00973769 1.71499e-07 272.663 
-0.47 -0.83 -0.01733 0.213 0.00975389 0.00970853 -3.2451e-07 0.0097337 1.71465e-07 272.605 
-0.45 -0.83 -0.132285 0.226966 0.00975961 0.00972593 -6.46546e-06 0.00974609 1.71472e-07 272.94 
-0.49 -0.81 0.0417488 0.0316428 0.00975478 0.00972144 -5.21313e-06 0.00974277 1.71433e-07 272.909 
-0.43 -0.83 -0.14426 0.0957327 0.00974327 0.00971785 5.91413e-06 0.00972665 1.71334e-07 272.614 
-0.47 -0.81 -0.0584192 0.361128 0.00975604 0.00971442 -4.93321e-06 0.00974614 1.71521e-07 272.863 
-0.45 -0.81 -0.0786577 0.242614 0.00975669 0.00971577 3.8501e-06 0.00973798 1.71606e-07 272.5 
-0.49 -0.79 -0.113293 0.317495 0.0097539 0.0097217 6.32303e-06 0.00973947 1.71432e-07 272.819 
-0.43 -0.81 -0.23201 0.2887 0.00976532 0.00972042 -1.2255e-06 0.00974211 1.71752e-07 272.384 
-0.47 -0.79 -0.041887 0.130615 0.00974011 0.00970866 -1.95763e-06 0.00972877 1.7136e-07 272.634 
-0.41 -0.81 -0.46441 0.345388 0.009753 0.00972331 9.98273e-06 0.00974207 1.71525e-07 272.743 
-0.45 -0.79 -0.0500034 0.43042 0.00973976 0.00972291 -6.30802e-06 0.00973484 1.71377e-07 272.776 
-0.49 -0.77 0.165596 0.204755 0.00973664 0.00971463 4.01679e-06 0.00972398 1.71114e-07 272.892 
-0.39 -0.81 -0.270148 0.17514 0.00974566 0.00972074 1.28073e-05 0.00974801 1.71646e-07 272.717 
-0.43 -0.79 -0.319831 0.343217 0.00974844 0.00971389 -1.72529e-06 0.00973621 1.71439e-07 272.717 
-0.47 -0.77 -0.149897 0.341135 0.00974766 0.00971683 1.06463e-06 0.00973324 1.7127e-07 272.902 
-0.37 -0.81 0.154809 0.259806 0.00974999 0.00971431 3.34729e-06 0.00973737 1.71615e-07 272.469 
-0.41 -0.79 -0.333245 0.405571 0.00976018 0.00972345 4.05037e-06 0.00974917 1.71801e-07 272.504 
-0.45 -0.77 -0.401687 0.627361 0.00975108 0.00972571 -2.63564e-06 0.00973782 1.71464e-07 272.721 
-0.35 -0.81 0.126216 0.161762 0.00974492 0.00971499 3.75335e-06 0.00973556 1.71305e-07 272.912 
-0.39 -0.79 -0.197988 -0.12325 0.00977118 0.00971631 3.323e-06 0.00975051 1.7173e-07 272.654 
-0.43 -0.77 -0.3569 0.440966 0.00973733 0.0097087 -4.14951e-06 0.00972383 1.71313e-07 272.569 
-0.37 -0.79 -0.334837 0.244306 0.00977542 0.00971713 7.98423e-06 0.00974846 1.71575e-07 272.843 
-0.41 -0.77 -0.391007 0.0251117 0.00973813 0.00971985 -1.71077e-06 0.00973489 1.71578e-07 272.458 
-0.35 -0.79 -0.281079 0.135137 0.0097725 0.00971344 1.05428e-05 0.00974272 1.71708e-07 272.472 
-0.39 -0.77 -0.0521022 0.0135621 0.00973793 0.00971591 -5.51368e-07 0.00973969 1.71528e-07 272.671 
-0.43 -0.75 0.153255 0.261732 0.00976569 0.0097147 -6.54854e-06 0.00973977 1.71421e-07 272.844 
-0.33 -0.79 -0.236462 0.361241 0.0097628 0.00971225 -3.76749e-06 0.00972698 1.71532e-07 272.31 
-0.37 -0.77 -0.00625536 0.206907 0.00975027 0.00971257 -5.40075e-06 0.00973556 1.71484e-07 272.626 
-0.41 -0.75 0.127422 0.275746 0.00976544 0.00971208 1.61083e-06 0.00975146 1.71732e-07 272.677 
-0.35 -0.77 -0.260482 0.492366 0.00976792 0.00971622 1.00044e-06 0.0097463 1.71376e-07 273.1 
-0.39 -0.75 -0.268556 0.0549337 0.00976741 0.00972006 -3.03771e-07 0.00974623 1.71508e-07 272.887 
-0.49 -0.75 -0.149044 0.19709 0.00974086 0.00972228 -3.25941e-06 0.00973648 1.71014e-07 273.402 
-0.47 -0.75 -0.105208 0.413378 0.00975068 0.00972674 -9.60454e-06 0.00973183 1.71188e-07 272.993 
-0.45 -0.75 -0.0137532 0.647647 0.00975575 0.00971128 -6.67585e-06 0.0097259 1.7133e-07 272.601 
-0.49 -0.73 -0.0440273 0.388689 0.00978524 0.00972736 3.22363e-06 0.00975845 1.71315e-07 273.537 
-0.47 -0.73 -0.261531 0.374953 0.00976895 0.00973561 1.11362e-06 0.00975103 1.71306e-07 273.343 
-0.45 -0.73 -0.169964 0.318345 0.00976276 0.00970867 -1.35036e-05 0.00973793 1.71527e-07 272.624 
-0.49 -0.71 -0.0253461 0.466028 0.00978254 0.00972554 3.57698e-06 0.00975487 1.71585e-07 273.006 
-0.43 -0.73 0.00713393 0.398244 0.0097562 0.00971301 -5.93859e-06 0.00973742 1.71469e-07 272.703 
-0.47 -0.71 -0.0623525 0.57705 0.00979011 0.0097375 2.52854e-06 0.00976375 1.71741e-07 273.007 
-0.37 -0.75 -0.354264 0.159629 0.00974207 0.00971231 3.54695e-06 0.00972822 1.71396e-07 272.561 
-0.41 -0.73 0.0246809 0.28494 0.00975833 0.00970344 -8.45812e-06 0.00974033 1.71563e-07 272.635 
-0.45 -0.71 0.20582 -0.0148984 0.00977514 0.00971996 1.01834e-06 0.0097478 1.71555e-07 272.856 
-0.49 -0.69 -0.0538667 0.437618 0.0097784 0.00972003 -1.22153e-05 0.0097528 1.71619e-07 272.893 
-0.35 -0.75 0.0103261 0.362707 0.00973377 0.0097101 3.26773e-06 0.00973029 1.71405e-07 272.605 
-0.39 -0.73 0.0231446 0.155254 0.00975809 0.00970875 1.15971e-05 0.00973816 1.71322e-07 272.958 
-0.43 -0.71 -0.0623494 0.324383 0.00976396 0.00971432 -6.31515e-07 0.00974497 1.71629e-07 272.66 
-0.47 -0.69 0.303285 0.345058 0.00977786 0.00972619 6.4978e-06 0.0097594 1.71599e-07 273.11 
-0.37 -0.73 0.00769727 0.198728 0.00976592 0.0097194 1.01492e-05 0.00974828 1.71655e-07 272.711 
-0.41 -0.71 0.165375 0.44185 0.00976129 0.00968605 -2.52325e-06 0.00973127 1.7165e-07 272.242 
-0.45 -0.69 -0.072644 0.325594 0.00979555 0.00972555 8.54364e-06 0.00976342 1.71896e-07 272.752 
-0.35 -0.73 -0.354241 0.297152 0.00975872 0.0097112 4.67566e-06 0.00974655 1.71528e-07 272.864 
-0.39 -0.71 0.0194769 0.19592 0.00976394 0.00971191 -6.21112e-07 0.00974364 1.71625e-07 272.628 
-0.43 -0.69 -0.227342 0.456888 0.00979186 0.00971797 7.46318e-06 0.00976169 1.72068e-07 272.43 
-0.33 -0.73 -0.42305 0.23435 0.00975892 0.00969634 1.11197e-05 0.00973628 1.71579e-07 272.495 
-0.37 -0.71 0.0418138 0.20163 0.00975805 0.00971481 1.62878e-05 0.00974723 1.71732e-07 272.559 
-0.41 -0.69 -0.226728 0.17612 0.00977602 0.00969629 1.03299e-06 0.0097376 1.717e-07 272.341 
-0.35 -0.71 -0.189876 0.637304 0.00975711 0.00970848 9.49058e-07 0.00975585 1.7179e-07 272.708 
-0.39 -0.69 -0.107253 0.253854 0.00976234 0.00969787 1.05743e-05 0.00973195 1.71567e-07 272.394 
-0.37 -0.69 -0.166144 0.418194 0.0097699 0.00971098 7.85917e-06 0.0097471 1.7161e-07 272.749 
-0.35 -0.69 -0.150881 0.697856 0.00977041 0.00971519 1.45618e-05 0.00974434 1.71534e-07 272.792 
-0.35 -0.67 -0.249869 0.693542 0.00977817 0.00973067 1.1838e-05 0.00975217 1.71588e-07 272.926 
-0.33 -0.67 -0.297445 0.74005 0.00975931 0.00970268 1.04952e-06 0.00974515 1.71673e-07 272.594 
-0.33 -0.75 0.170129 0.277984 0.00973667 0.00970391 7.54892e-06 0.00972999 1.71406e-07 272.594 
-0.31 -0.73 -0.35235 0.731825 0.00975764 0.00971869 3.25581e-06 0.00974307 1.71548e-07 272.735 
-0.29 -0.73 -0.332372 0.731044 0.00976208 0.00969615 4.68592e-06 0.00973455 1.71312e-07 272.871 
-0.33 -0.71 -0.461591 0.182786 0.00975703 0.00970432 8.59877e-06 0.00974248 1.71649e-07 272.558 
-0.27 -0.73 -0.474316 0.590875 0.00976542 0.00971657 7.67122e-06 0.00974495 1.7135e-07 273.103 
-0.31 -0.71 -0.367764 0.643375 0.00975761 0.00972016 6.62611e-06 0.00974679 1.71671e-07 272.643 
-0.29 -0.71 -0.258226 0.725018 0.00974967 0.00969037 8.74057e-06 0.00972734 1.71202e-07 272.844 
-0.33 -0.69 -0.216361 0.479745 0.00977738 0.00970405 -9.15574e-06 0.00975072 1.71847e-07 272.474 
-0.27 -0.71 -0.202435 0.549295 0.00975125 0.00971092 2.94916e-06 0.00973231 1.71243e-07 272.919 
-0.31 -0.69 -0.542151 0.500809 0.00977982 0.0097124 1.09968e-05 0.00975745 1.71881e-07 272.608 
-0.29 -0.69 -0.429935 0.584153 0.00977474 0.00970078 1.33955e-05 0.00974272 1.71554e-07 272.716 
-0.27 -0.69 -0.250457 0.700878 0.00977838 0.00971525 2.31353e-06 0.00975005 1.71329e-07 273.279 
-0.31 -0.67 -0.289534 0.694825 0.00975265 0.00969479 1.53294e-06 0.00972795 1.71437e-07 272.487 
-0.29 -0.67 -0.423539 0.443953 0.00976669 0.00971037 7.31142e-06 0.00974437 1.7147e-07 272.895 
-0.41 -0.83 -0.126428 0.280484 0.00975334 0.00972847 -3.61394e-06 0.00973995 1.71572e-07 272.609 
-0.39 -0.83 -0.29457 0.428269 0.00975011 0.00972613 5.95337e-06 0.00973664 1.71431e-07 272.742 
-0.37 -0.83 -0.333451 0.325828 0.00974251 0.00971305 8.9863e-06 0.00973449 1.71416e-07 272.704 
-0.35 -0.83 -0.448985 0.133352 0.00975118 0.00971593 1.58485e-05 0.00973103 1.71278e-07 272.827 
-0.33 -0.83 -0.144272 0.210709 0.00974852 0.00971297 1.54427e-05 0.00972694 1.71088e-07 273.015 
-0.31 -0.83 -0.200046 -0.234348 0.00974502 0.00969802 1.28259e-05 0.00973273 1.71351e-07 272.759 
-0.29 -0.83 -0.500658 0.100799 0.00976682 0.00971571 8.74787e-06 0.00975036 1.71336e-07 273.277 
-0.27 -0.83 -0.452942 0.231066 0.00977125 0.00972464 9.40603e-06 0.00975585 1.71339e-07 273.426 
-0.27 -0.67 -0.543004 0.561791 0.00975747 0.00972103 1.30627e-05 0.00975072 1.71568e-07 272.917 
-0.25 -0.67 -0.337636 0.741783 0.00976305 0.00971488 2.58735e-07 0.00975392 1.71471e-07 273.161 
-0.25 -0.81 -0.564304 0.286834 0.00976907 0.00971453 7.20437e-06 0.00974845 1.7146e-07 273.025 
-0.25 -0.79 -0.462496 0.218779 0.00976287 0.00972737 1.59087e-05 0.00974502 1.71369e-07 273.075 
-0.35 -0.55 -0.229305 0.650375 0.00979118 0.00971071 7.63775e-06 0.00975326 1.71644e-07 272.868 
-0.39 -0.53 -0.0803757 1.01828 0.00978238 0.009694 5.44669e-07 0.00975243 1.71588e-07 272.934 
-0.37 -0.57 -0.346765 0.712588 0.00978355 0.00969683 5.01533e-06 0.00974769 1.71565e-07 272.837 
-0.41 -0.55 -0.0837762 0.897049 0.00975973 0.00970656 -3.91271e-06 0.00974073 1.71502e-07 272.743 
-0.45 -0.53 0.127269 0.601808 0.00976892 0.00969861 -6.48935e-06 0.00972901 1.7141e-07 272.561 
-0.35 -0.57 -0.222006 0.560846 0.00978397 0.00970191 2.17325e-05 0.00974707 1.71546e-07 272.85 
-0.39 -0.55 -0.137831 0.99127 0.00976185 0.00969234 2.68259e-06 0.00974699 1.71453e-07 272.995 
-0.43 -0.53 -0.135021 0.680113 0.00977582 0.00970187 3.95915e-06 0.00973924 1.71589e-07 272.563 
-0.47 -0.51 -0.300186 0.623237 0.00976589 0.00969123 -2.97483e-06 0.00972611 1.71473e-07 272.379 
-0.37 -0.55 -0.192793 0.723919 0.00975866 0.00967754 8.67274e-07 0.00973134 1.71129e-07 273.074 
-0.41 -0.53 -0.225711 0.795345 0.00978247 0.00970984 -3.31338e-06 0.00975109 1.71629e-07 272.83 
-0.45 -0.51 -0.481272 0.731822 0.0097643 0.00969372 3.96492e-06 0.00973321 1.71493e-07 272.547 
-0.37 -0.53 -0.101702 0.878857 0.00978224 0.00968773 -3.06997e-06 0.00973845 1.71434e-07 272.786 
-0.41 -0.51 -0.345549 0.792607 0.0097539 0.0097052 -2.84417e-06 0.00972953 1.71344e-07 272.68 
-0.35 -0.53 -0.384354 0.759265 0.00976424 0.00969272 5.94488e-06 0.00972934 1.7137e-07 272.633 
-0.39 -0.51 -0.49649 0.822991 0.0097555 0.00968811 2.40635e-06 0.00972539 1.71365e-07 272.53 
-0.37 -0.51 -0.378388 1.04496 0.00975493 0.00968189 7.9795e-06 0.00972181 1.71251e-07 272.611 
-0.35 -0.51 -0.45792 0.850432 0.00975415 0.00969151 9.25748e-06 0.00971975 1.71255e-07 272.548 
-0.49 -0.65 0.186021 0.373006 0.00976752 0.00971701 9.48449e-06 0.00974797 1.71573e-07 272.832 
-0.47 -0.65 -0.169485 0.43266 0.00976333 0.00972053 5.49103e-06 0.00975001 1.71638e-07 272.786 
-0.45 -0.65 -0.168716 0.622653 0.00975907 0.00972644 5.74274e-06 0.00975129 1.71855e-07 272.478 
-0.49 -0.63 -0.142036 0.345792 0.0097508 0.00971938 5.18307e-06 0.00974754 1.71807e-07 272.449 
-0.43 -0.65 0.138827 0.751358 0.00974775 0.00969666 2.90596e-06 0.00972955 1.71389e-07 272.609 
-0.47 -0.63 -0.0922505 0.647333 0.00975332 0.0097192 -7.87229e-07 0.0097447 1.71724e-07 272.502 
-0.41 -0.65 0.0177156 0.299581 0.00976442 0.00970537 1.21549e-05 0.00973939 1.71512e-07 272.688 
-0.45 -0.63 -0.130375 0.545138 0.00976495 0.00972156 8.58943e-06 0.00974937 1.7171e-07 272.653 
-0.49 -0.61 -0.0676586 0.575776 0.00976482 0.00971761 -1.13594e-05 0.00975023 1.71738e-07 272.633 
-0.39 -0.65 -0.0850795 0.245234 0.00976017 0.00971501 6.37567e-06 0.0097396 1.71335e-07 272.976 
-0.43 -0.63 -0.29116 0.623616 0.00977378 0.00971005 5.35606e-06 0.00974215 1.71353e-07 273.019 
-0.47 -0.61 -0.275689 0.626533 0.00976505 0.00971669 5.29309e-06 0.00974965 1.7171e-07 272.662 
-0.37 -0.65 -0.557653 0.554296 0.00975574 0.00968991 -2.73812e-07 0.00972461 1.71202e-07 272.768 
-0.41 -0.63 -0.272811 0.440141 0.00976368 0.00969049 4.79165e-06 0.00972889 1.71257e-07 272.801 
-0.45 -0.61 -0.304911 0.743414 0.00976169 0.00971555 -6.42479e-06 0.00974778 1.7151e-07 272.928 
-0.49 -0.59 -0.0521566 0.618024 0.00977389 0.00970195 -7.8882e-06 0.00974416 1.71593e-07 272.694 
-0.35 -0.65 -0.570603 0.447327 0.00976856 0.0097334 6.09725e-06 0.00974974 1.71693e-07 272.691 
-0.39 -0.63 -0.472182 0.592639 0.0097756 0.00972055 1.19592e-05 0.00973936 1.71491e-07 272.721 
-0.43 -0.61 -0.149009 0.676167 0.00976778 0.00970272 7.99934e-06 0.00973857 1.71247e-07 273.088 
-0.47 -0.59 -0.0246 0.781357 0.00977947 0.00971933 -5.8603e-06 0.00975128 1.71757e-07 272.632 
-0.37 -0.63 -0.437657 0.615729 0.00976048 0.00969265 5.20599e-06 0.00972757 1.71416e-07 272.511 
-0.41 -0.61 -0.363424 0.472843 0.00977345 0.00971185 6.82326e-06 0.00973962 1.71292e-07 273.045 
-0.45 -0.59 0.0527086 0.420356 0.00978331 0.00971185 -6.52568e-07 0.00975857 1.71719e-07 272.896 
-0.49 -0.57 -0.0549073 0.599365 0.00977521 0.00969628 -1.22855e-05 0.00973346 1.71304e-07 272.853 
-0.35 -0.63 -0.445905 0.452026 0.00975772 0.00971892 7.21191e-06 0.00973555 1.71402e-07 272.757 
-0.39 -0.61 -0.265505 0.563588 0.00977573 0.00970126 1.70291e-06 0.00973761 1.71279e-07 273.011 
-0.43 -0.59 0.0794428 0.839146 0.0097789 0.00970705 4.95451e-06 0.00975171 1.71777e-07 272.613 
-0.47 -0.57 -0.0307886 0.658748 0.00977465 0.00972409 -5.66651e-06 0.0097453 1.71656e-07 272.625 
-0.37 -0.61 -0.30662 0.596182 0.00978203 0.00970517 1.12046e-05 0.00974395 1.7143e-07 272.947 
-0.41 -0.59 0.127767 0.537691 0.00978193 0.00970518 -3.46866e-06 0.00974407 1.7146e-07 272.902 
-0.45 -0.57 0.0916963 0.491816 0.00977156 0.00969853 2.12169e-06 0.00973814 1.71401e-07 272.83 
-0.49 -0.55 0.0217275 0.621022 0.00975764 0.00969589 -1.28937e-05 0.00973189 1.71404e-07 272.651 
-0.35 -0.61 -0.259149 0.46289 0.00977648 0.00970521 5.19903e-06 0.00973483 1.71347e-07 272.824 
-0.39 -0.59 -0.0329588 0.718604 0.00977702 0.0096834 6.95463e-06 0.00973539 1.71306e-07 272.904 
-0.43 -0.57 0.0919739 0.75091 0.00977658 0.00970525 -3.61081e-06 0.00974705 1.71412e-07 273.063 
-0.47 -0.55 0.0227673 0.768931 0.00977191 0.00970442 -5.30491e-06 0.00974584 1.71793e-07 272.424 
-0.33 -0.61 -0.55046 0.626302 0.00977683 0.00970014 2.20627e-05 0.00974474 1.71435e-07 272.962 
-0.37 -0.59 -0.0392162 0.508156 0.00977782 0.00972029 1.49643e-05 0.0097469 1.71522e-07 272.883 
-0.41 -0.57 0.0466033 0.735326 0.00977985 0.00970414 1.22351e-05 0.00974418 1.71544e-07 272.772 
-0.45 -0.55 -0.122474 0.401551 0.00977155 0.00970112 -5.48185e-07 0.00973293 1.71456e-07 272.596 
-0.49 -0.53 0.0639609 0.633408 0.00977471 0.00969891 -4.556e-06 0.00974037 1.71587e-07 272.597 
-0.35 -0.59 -0.321318 0.701538 0.009769 0.00969318 1.39707e-05 0.00972829 1.71514e-07 272.375 
-0.39 -0.57 -0.245181 0.879546 0.00978068 0.00969189 -2.74843e-06 0.00974506 1.71449e-07 272.947 
-0.43 -0.55 -0.0221649 0.611451 0.00976575 0.00970276 5.41936e-06 0.00974532 1.71513e-07 272.853 
-0.47 -0.53 0.110168 0.60101 0.009765 0.00969251 -6.9999e-06 0.00972998 1.71447e-07 272.529 
-0.29 -0.57 -0.588419 0.520689 0.00977106 0.00969482 2.23087e-05 0.00973904 1.71364e-07 272.915 
-0.33 -0.55 -0.511632 0.968815 0.00979709 0.00971794 8.8892e-06 0.0097513 1.71558e-07 272.949 
-0.29 -0.61 -0.268327 0.707084 0.00976239 0.00970721 2.01199e-06 0.00973857 1.7156e-07 272.589 
-0.33 -0.59 -0.270681 0.885199 0.00977205 0.00970246 1.30025e-05 0.00973963 1.71349e-07 272.955 
-0.27 -0.61 -0.405306 0.448337 0.00976817 0.00969863 1.53107e-05 0.00973687 1.71381e-07 272.826 
-0.31 -0.59 -0.5932 0.779411 0.0097789 0.00972048 1.13363e-05 0.00975133 1.71604e-07 272.877 
-0.29 -0.59 -0.378421 0.334417 0.00979211 0.00970909 1.0237e-05 0.00975386 1.71555e-07 273.026 
-0.33 -0.57 -0.302669 0.955475 0.00978061 0.00970903 5.99866e-06 0.00974117 1.71432e-07 272.866 
-0.27 -0.59 -0.288018 0.771567 0.00977609 0.00968784 1.51565e-05 0.00973435 1.71249e-07 272.966 
-0.31 -0.57 -0.263174 0.801339 0.00978299 0.00971683 1.13594e-06 0.00975138 1.7166e-07 272.79 
-0.27 -0.57 -0.786525 0.724683 0.00976785 0.00969471 2.81003e-05 0.00974618 1.71588e-07 272.759 
-0.31 -0.55 -0.256908 0.930292 0.00977349 0.00969968 2.66518e-05 0.00974167 1.71402e-07 272.928 
-0.29 -0.55 -0.414205 0.683682 0.00976015 0.00968255 2.53291e-05 0.00972673 1.71157e-07 272.899 
-0.33 -0.53 -0.231685 1.06491 0.00976205 0.00969892 1.70076e-05 0.00973042 1.71243e-07 272.866 
-0.27 -0.55 -0.385344 0.72984 0.00976018 0.00969883 1.92576e-05 0.00972719 1.71318e-07 272.656 
-0.31 -0.53 -0.322269 0.789877 0.00976522 0.00970287 2.98149e-05 0.00973889 1.7146e-07 272.757 
-0.29 -0.53 -0.381339 0.79911 0.00978544 0.00968931 2.69753e-05 0.00974464 1.71427e-07 272.971 
-0.33 -0.51 -0.426436 0.814006 0.00975022 0.00968322 2.1382e-05 0.00971738 1.71024e-07 272.849 
-0.27 -0.53 -0.55246 0.883493 0.0097788 0.00969854 2.44108e-05 0.00973999 1.71281e-07 273.074 
-0.31 -0.51 -0.162407 0.730519 0.00975274 0.00970184 1.78057e-05 0.00972244 1.71127e-07 272.827 
-0.29 -0.51 -0.123911 0.950951 0.00974708 0.00968673 2.09985e-05 0.00972889 1.71159e-07 272.957 
-0.27 -0.51 -0.305437 1.21619 0.00975836 0.00970154 2.86899e-05 0.00973552 1.71115e-07 273.213 
-0.33 -0.65 -0.398374 0.511353 0.00977618 0.00970472 1.49638e-05 0.00975074 1.71477e-07 273.063 
-0.31 -0.65 -0.284846 0.772311 0.00977324 0.00970185 8.53478e-06 0.00974585 1.7151e-07 272.873 
-0.29 -0.65 -0.425222 0.704628 0.00975387 0.00969448 9.3188e-06 0.0097298 1.71263e-07 272.817 
-0.33 -0.63 -0.343729 0.59511 0.00975028 0.00971138 1.10663e-05 0.00973978 1.71566e-07 272.615 
-0.27 -0.65 -0.48876 0.461394 0.009768 0.00972785 7.12995e-06 0.00974849 1.71588e-07 272.824 
-0.31 -0.63 -0.677892 0.776257 0.00974046 0.00969281 1.24786e-05 0.00972784 1.71177e-07 272.899 
-0.25 -0.65 -0.6201 0.491089 0.00975723 0.00970837 8.56225e-06 0.00974193 1.71589e-07 272.637 
-0.29 -0.63 -0.725736 0.50795 0.00976154 0.00971361 6.03959e-06 0.00974242 1.71599e-07 272.635 
-0.27 -0.63 -0.573126 0.552783 0.00974907 0.00971574 8.32734e-06 0.00973863 1.71601e-07 272.526 
-0.31 -0.61 -0.457511 0.795651 0.0097808 0.0097158 1.39304e-05 0.00975389 1.71719e-07 272.765 
-0.49 -0.67 -0.053488 0.422578 0.00976632 0.00970998 -1.81158e-06 0.00974477 1.71412e-07 272.999 
-0.47 -0.67 -0.0108955 0.184414 0.00976763 0.00972427 -4.13783e-06 0.0097418 1.71638e-07 272.556 
-0.45 -0.67 0.0612427 0.806851 0.00975913 0.00972154 4.23722e-06 0.00973947 1.71634e-07 272.498 