ITEM: TIMESTEP
874500
ITEM: NUMBER OF CELLS
5000
ITEM: BOX BOUNDS ss ss pp
-0.5 0.5
-1 1
-0.5 0.5
ITEM: CELLS xc yc f_U[*] f_V[*] f_Tau[1] f_Tau[2] f_Tau[3] f_Press[*] f_Mrho[*] f_Ttra[*] 
-0.49 -0.99 -0.0747093 0.132463 0.00976476 0.00972979 1.35297e-05 0.00975456 1.71852e-07 272.574 
-0.47 -0.99 -0.210299 -0.100083 0.00975181 0.0097223 -2.80356e-06 0.0097419 1.71555e-07 272.691 
-0.45 -0.99 -0.217247 0.0145463 0.00973797 0.00972091 5.11973e-06 0.00973432 1.71439e-07 272.663 
-0.49 -0.97 -0.14191 0.126725 0.00972549 0.00971847 8.45096e-06 0.00972481 1.71125e-07 272.896 
-0.43 -0.99 -0.419592 0.100009 0.00972612 0.00972894 5.44218e-06 0.00973154 1.71162e-07 273.026 
-0.47 -0.97 -0.0801221 0.0684443 0.00973354 0.00972557 1.61161e-05 0.00973762 1.71396e-07 272.823 
-0.41 -0.99 -0.200304 -0.150568 0.00971737 0.00973614 4.19196e-06 0.00972953 1.71322e-07 272.714 
-0.45 -0.97 -0.0124197 0.0419357 0.00972837 0.00972104 5.47175e-06 0.00973167 1.71318e-07 272.781 
-0.49 -0.95 0.0470978 0.160749 0.00971257 0.00970403 -6.39745e-06 0.00971683 1.70988e-07 272.891 
-0.39 -0.99 -0.181035 0.00287717 0.00971966 0.00970458 -2.5705e-06 0.00970654 1.70597e-07 273.227 
-0.43 -0.97 0.172164 0.0160848 0.00974533 0.00973554 -1.58535e-06 0.00973936 1.71292e-07 273.038 
-0.47 -0.95 0.0606261 0.0748247 0.00972446 0.009724 4.59464e-06 0.00972282 1.71158e-07 272.787 
-0.37 -0.99 -0.183837 0.0816436 0.00972148 0.00971654 1.2078e-05 0.00971576 1.70978e-07 272.878 
-0.41 -0.97 -0.022341 -0.193584 0.00973964 0.00973395 6.77724e-06 0.00973652 1.71178e-07 273.14 
-0.45 -0.95 0.146179 -0.308351 0.00973579 0.00974523 8.88288e-06 0.00974425 1.71622e-07 272.651 
-0.49 -0.93 0.0279394 0.114011 0.00974478 0.00971422 3.68127e-06 0.00973429 1.71234e-07 272.989 
-0.35 -0.99 -0.185167 -0.1208 0.00970405 0.00968437 1.43664e-05 0.00969281 1.70634e-07 272.781 
-0.39 -0.97 0.306731 -0.0690194 0.00972477 0.00970399 1.82346e-05 0.00971954 1.71137e-07 272.729 
-0.43 -0.95 0.160739 0.0441476 0.0097338 0.00971426 2.91371e-06 0.00972413 1.71164e-07 272.815 
-0.47 -0.93 0.182694 -0.0625098 0.00974607 0.00972049 -3.26227e-06 0.00973664 1.71244e-07 273.038 
-0.33 -0.99 -0.0737461 0.0226533 0.00971552 0.00971439 4.3903e-06 0.00970823 1.70846e-07 272.877 
-0.37 -0.97 0.164613 0.140876 0.00971925 0.00970433 7.35058e-06 0.00971109 1.70966e-07 272.766 
-0.41 -0.95 0.0662527 -0.15626 0.00972811 0.00972798 9.65571e-06 0.00972719 1.71304e-07 272.678 
-0.45 -0.93 0.127314 -0.152726 0.00974126 0.00973721 -2.16313e-06 0.0097368 1.71461e-07 272.697 
-0.49 -0.91 0.284445 -0.0417724 0.00978374 0.00973421 1.75069e-05 0.00976204 1.7144e-07 273.438 
-0.35 -0.97 0.0271407 -0.0675428 0.0097321 0.00970245 7.20331e-06 0.00971565 1.70874e-07 273.04 
-0.39 -0.95 -0.130084 -0.141011 0.00972872 0.00970929 1.1159e-05 0.00971971 1.71254e-07 272.547 
-0.43 -0.93 0.204 -0.0524446 0.00974022 0.00970513 1.91423e-06 0.00971776 1.71027e-07 272.854 
-0.47 -0.91 -0.0823672 0.0172317 0.00976961 0.00971547 -2.80925e-06 0.00974471 1.71411e-07 272.998 
-0.33 -0.97 -0.181198 0.052842 0.00973013 0.00970883 5.41795e-06 0.009725 1.71286e-07 272.645 
-0.37 -0.95 -0.204117 0.280542 0.00974152 0.00971291 2.1853e-05 0.00973237 1.71163e-07 273.049 
-0.41 -0.93 0.0588611 -0.0414634 0.00975117 0.00973327 2.55147e-05 0.00973148 1.71329e-07 272.759 
-0.45 -0.91 0.0419992 -0.208238 0.00977335 0.00973311 6.88928e-06 0.00975093 1.71464e-07 273.088 
-0.49 -0.89 -0.173096 0.00972858 0.00978461 0.00973762 6.81303e-06 0.00975667 1.71579e-07 273.067 
-0.35 -0.95 -0.0673091 -0.0232378 0.00974152 0.0097054 -3.55407e-06 0.00972551 1.71261e-07 272.699 
-0.39 -0.93 -0.291958 0.168661 0.00973443 0.00971318 9.19527e-06 0.0097213 1.71153e-07 272.753 
-0.43 -0.91 -0.183089 -0.033903 0.00974638 0.00971558 1.29638e-05 0.0097289 1.70981e-07 273.241 
-0.47 -0.89 0.095268 0.0362182 0.00977051 0.0097288 1.64096e-05 0.00974947 1.71798e-07 272.516 
-0.37 -0.93 -0.146305 0.129714 0.00974082 0.00971074 -8.31464e-06 0.00973564 1.71374e-07 272.804 
-0.41 -0.91 -0.289651 0.363694 0.00974948 0.00970433 5.09665e-06 0.00972041 1.71238e-07 272.594 
-0.45 -0.89 -0.166973 0.0237474 0.00975428 0.00971742 4.50617e-06 0.00973698 1.71351e-07 272.877 
-0.49 -0.87 0.0195613 0.0913018 0.00973508 0.00971399 4.16673e-06 0.00971943 1.71024e-07 272.907 
-0.35 -0.93 -0.530889 0.116037 0.00975004 0.0097134 1.8228e-06 0.00972042 1.71285e-07 272.519 
-0.39 -0.91 -0.355973 0.0670465 0.00977953 0.00973694 1.42664e-05 0.00975775 1.71627e-07 273.02 
-0.43 -0.89 -0.330238 0.212614 0.00977411 0.00972754 1.5694e-05 0.00975101 1.71338e-07 273.291 
-0.47 -0.87 0.0708277 0.0926157 0.00975225 0.00973128 7.82293e-06 0.00973737 1.71354e-07 272.884 
-0.37 -0.91 -0.295498 0.201887 0.00975968 0.00971998 3.42885e-06 0.00974238 1.71541e-07 272.727 
-0.41 -0.89 -0.289538 0.27577 0.00976836 0.00970544 6.94356e-07 0.00974136 1.71402e-07 272.919 
-0.45 -0.87 -0.260147 0.155396 0.0097644 0.00971458 1.24231e-05 0.00974674 1.71456e-07 272.984 
-0.49 -0.85 0.0528366 0.0784604 0.00975036 0.00971729 -6.60784e-06 0.00972421 1.7118e-07 272.792 
-0.35 -0.91 -0.00537505 0.180317 0.0097494 0.00971033 3.38406e-07 0.00972309 1.71146e-07 272.815 
-0.39 -0.89 -0.270686 0.172461 0.00976548 0.00972338 6.38085e-06 0.00974643 1.71436e-07 273.007 
-0.43 -0.87 -0.0642263 0.129192 0.0097487 0.00973689 9.89891e-06 0.009747 1.71544e-07 272.851 
-0.47 -0.85 -0.115468 0.376864 0.00975279 0.00972215 7.64393e-06 0.009742 1.7131e-07 273.084 
-0.33 -0.91 -0.173084 0.0562626 0.00975383 0.0097071 4.00467e-06 0.0097283 1.71373e-07 272.599 
-0.37 -0.89 -0.293175 0.00663044 0.00977946 0.00973671 1.98479e-05 0.00975812 1.71423e-07 273.355 
-0.41 -0.87 -0.107161 0.391991 0.00975484 0.00972118 7.12124e-06 0.00973787 1.71359e-07 272.889 
-0.45 -0.85 -0.147653 0.190149 0.00975275 0.00971306 1.3327e-05 0.00973797 1.71337e-07 272.927 
-0.35 -0.89 -0.288828 0.208964 0.00976817 0.00970708 5.14219e-06 0.00972687 1.71146e-07 272.921 
-0.39 -0.87 -0.0994775 0.0437558 0.00976231 0.0097124 -1.96225e-06 0.00973614 1.71517e-07 272.59 
-0.43 -0.85 -0.296907 0.147994 0.00977333 0.00973911 -3.7942e-06 0.00974875 1.7161e-07 272.795 
-0.37 -0.87 -0.227247 0.0679875 0.00976639 0.00972918 8.77624e-06 0.00974421 1.7148e-07 272.874 
-0.41 -0.85 -0.261001 0.277276 0.00977081 0.0097271 7.35852e-06 0.0097481 1.71579e-07 272.826 
-0.35 -0.87 -0.0833687 0.306258 0.00977691 0.00972799 7.76905e-06 0.0097535 1.71468e-07 273.153 
-0.39 -0.85 -0.389172 0.486256 0.00976471 0.00971616 -1.16914e-06 0.00973774 1.7147e-07 272.709 
-0.33 -0.87 -0.351917 0.0179387 0.00977243 0.00971332 6.17027e-06 0.00974184 1.71367e-07 272.989 
-0.37 -0.85 -0.49553 -0.205188 0.00976433 0.00971609 4.45156e-06 0.00974169 1.71408e-07 272.919 
-0.35 -0.85 -0.453242 0.137304 0.00976695 0.00973349 4.82412e-06 0.00974845 1.7126e-07 273.344 
-0.33 -0.85 -0.398157 0.417677 0.00976235 0.00971251 1.52291e-05 0.00973393 1.711e-07 273.193 
-0.31 -0.99 -0.0957094 0.0642683 0.00971303 0.00968898 8.25908e-06 0.00969792 1.70825e-07 272.621 
-0.29 -0.99 -0.384242 0.294908 0.00971909 0.00970521 6.22749e-07 0.00970343 1.70918e-07 272.626 
-0.27 -0.99 -0.311135 -0.369047 0.00974875 0.00972331 1.5254e-06 0.0097295 1.7101e-07 273.213 
-0.31 -0.97 -0.522672 0.111706 0.00974407 0.00970498 -7.69563e-06 0.00972779 1.71352e-07 272.619 
-0.29 -0.97 -0.495192 0.185442 0.00975463 0.00970876 -2.21877e-07 0.00973695 1.71485e-07 272.663 
-0.33 -0.95 -0.0743632 0.331323 0.00974714 0.00971241 9.93439e-07 0.00973023 1.71274e-07 272.81 
-0.27 -0.97 -0.0699636 -0.452119 0.00973687 0.00971425 -4.87241e-07 0.00973106 1.71377e-07 272.67 
-0.31 -0.95 -0.210812 0.363609 0.009735 0.0097092 1.66868e-06 0.0097226 1.71399e-07 272.398 
-0.29 -0.95 -0.102379 -0.134165 0.00972294 0.00968837 2.34114e-07 0.00970659 1.7124e-07 272.203 
-0.33 -0.93 -0.396886 0.235579 0.0097457 0.00970636 2.41495e-06 0.00972769 1.71303e-07 272.693 
-0.27 -0.95 -0.366846 -0.367146 0.00973174 0.00973497 7.52517e-07 0.00973248 1.71285e-07 272.857 
-0.31 -0.93 -0.0990927 0.134406 0.00975312 0.00971027 6.47266e-06 0.00973533 1.71615e-07 272.412 
-0.29 -0.93 -0.125989 0.0296099 0.00975952 0.0096943 7.83886e-07 0.00972611 1.71407e-07 272.484 
-0.27 -0.93 -0.111818 -0.244177 0.00977616 0.009732 -4.79249e-06 0.00975541 1.71728e-07 272.795 
-0.31 -0.91 -0.164695 0.264584 0.00976054 0.00971201 -4.29112e-08 0.00974141 1.71519e-07 272.734 
-0.29 -0.91 -0.189159 -0.142856 0.00975451 0.00970209 -1.49387e-05 0.00972367 1.71279e-07 272.619 
-0.33 -0.89 -0.188967 -0.00383385 0.0097663 0.00971785 -5.85857e-06 0.00973358 1.71273e-07 272.907 
-0.27 -0.91 -0.156871 -0.146978 0.00974956 0.00971548 -2.24107e-06 0.00972328 1.7134e-07 272.512 
-0.31 -0.89 -0.0959175 0.136261 0.00976823 0.00970048 -5.92824e-06 0.00973874 1.71589e-07 272.549 
-0.29 -0.89 -0.0687638 -0.0876354 0.00976738 0.00971805 -2.95986e-06 0.00974179 1.71361e-07 272.997 
-0.27 -0.89 -0.219073 -0.095774 0.00974642 0.00969712 3.53484e-06 0.00972698 1.71301e-07 272.676 
-0.31 -0.87 -0.410679 0.0677535 0.00974468 0.00970312 4.22979e-06 0.00972549 1.71303e-07 272.631 
-0.29 -0.87 -0.211253 -0.0844687 0.00972802 0.00970686 1.23534e-05 0.00972058 1.71174e-07 272.7 
-0.27 -0.87 -0.210277 0.317526 0.00973134 0.00970843 2.8209e-06 0.00972052 1.71209e-07 272.642 
-0.31 -0.85 -0.193376 -0.127428 0.00976248 0.00970386 1.97463e-05 0.00973195 1.71441e-07 272.594 
-0.29 -0.85 -0.118635 -0.103012 0.00975517 0.00970169 1.30706e-05 0.00973978 1.71469e-07 272.769 
-0.27 -0.85 -0.433761 0.400297 0.00975466 0.00971478 5.95557e-06 0.00973878 1.71093e-07 273.339 
-0.25 -0.99 -0.24831 0.0528984 0.0097555 0.00974408 2.40333e-06 0.00974637 1.71383e-07 273.089 
-0.25 -0.97 -0.0777338 0.180198 0.00973881 0.00973955 -1.17629e-05 0.00974281 1.71437e-07 272.903 
-0.25 -0.95 -0.416817 0.0938544 0.00972254 0.00973307 -8.71592e-07 0.00973269 1.71297e-07 272.843 
-0.25 -0.93 -0.0175638 0.012378 0.00976563 0.00972916 9.0911e-06 0.00974738 1.71523e-07 272.895 
-0.25 -0.91 -0.0887734 -0.0256959 0.00974843 0.00971934 1.03465e-05 0.00973373 1.71356e-07 272.779 
-0.25 -0.89 -0.566809 0.0220474 0.00975375 0.00971502 1.2027e-05 0.00972945 1.71131e-07 273.018 
-0.25 -0.87 -0.516191 -0.0189911 0.00972521 0.00970007 1.27522e-06 0.00971655 1.70872e-07 273.069 
-0.25 -0.85 -0.194445 0.202763 0.00975797 0.00970743 5.01546e-07 0.00973397 1.71154e-07 273.107 
-0.25 -0.83 -0.317369 0.161276 0.00976264 0.00970037 3.70981e-06 0.00974296 1.71029e-07 273.559 
-0.33 -0.81 0.0803946 0.230087 0.00975745 0.00970592 8.12069e-06 0.00972813 1.71288e-07 272.729 
-0.31 -0.81 -0.282663 0.194331 0.00978121 0.0097129 4.17119e-06 0.00974203 1.7119e-07 273.276 
-0.29 -0.81 -0.38714 -0.0313815 0.00978035 0.00971347 -4.04358e-06 0.00974841 1.7137e-07 273.167 
-0.27 -0.81 -0.265491 0.207944 0.00978001 0.00971533 5.08342e-06 0.00975962 1.71538e-07 273.215 
-0.31 -0.79 -0.114021 0.227132 0.00976984 0.00971277 -4.07945e-06 0.00973307 1.71378e-07 272.726 
-0.29 -0.79 -0.437192 0.322335 0.00976203 0.00971145 2.60788e-06 0.00973021 1.71229e-07 272.882 
-0.33 -0.77 -0.48041 0.221544 0.00976821 0.00972545 8.57856e-06 0.00974191 1.71415e-07 272.915 
-0.27 -0.79 -0.633033 0.254867 0.00975107 0.00970034 5.8633e-06 0.00972872 1.71137e-07 272.987 
-0.31 -0.77 -0.391433 0.275768 0.00975312 0.00969379 4.07947e-06 0.00971999 1.71156e-07 272.711 
-0.29 -0.77 -0.378508 0.496264 0.00976407 0.00971551 9.04232e-06 0.00973793 1.71538e-07 272.606 
-0.27 -0.77 -0.522063 0.27371 0.00976797 0.00969703 7.44904e-06 0.00973848 1.71506e-07 272.672 
-0.31 -0.75 -0.03793 0.721747 0.00974944 0.00971365 1.06884e-06 0.00974454 1.71556e-07 272.763 
-0.29 -0.75 -0.434597 0.606149 0.00974834 0.00970684 5.32797e-07 0.00972918 1.71333e-07 272.687 
-0.27 -0.75 -0.576368 0.551211 0.00975399 0.00970138 9.94703e-06 0.00972545 1.71193e-07 272.806 
-0.49 -0.83 -0.109735 0.130637 0.00975895 0.0097166 6.11407e-06 0.00973942 1.71466e-07 272.762 
-0.47 -0.83 0.0928543 0.269148 0.00975645 0.00971083 8.66741e-07 0.0097369 1.7156e-07 272.543 
-0.45 -0.83 -0.000280578 0.287463 0.00975647 0.00973082 -2.29092e-06 0.00974644 1.71415e-07 273.041 
-0.49 -0.81 0.094882 0.000124154 0.00975342 0.00971987 -2.03467e-06 0.00974151 1.71503e-07 272.762 
-0.43 -0.83 -0.061534 0.233462 0.00973794 0.00971826 8.29578e-06 0.00972656 1.7132e-07 272.634 
-0.47 -0.81 -0.0202552 0.337713 0.00975626 0.00971509 -2.65366e-06 0.00974829 1.71552e-07 272.875 
-0.45 -0.81 -0.033926 0.329869 0.00975867 0.00971613 6.29662e-06 0.00974246 1.71633e-07 272.582 
-0.49 -0.79 -0.178492 0.265854 0.00974952 0.00972309 6.14823e-06 0.00973678 1.71448e-07 272.718 
-0.43 -0.81 -0.184759 0.384693 0.00977689 0.00972658 3.10888e-06 0.00974972 1.71846e-07 272.447 
-0.47 -0.79 -0.195796 0.218762 0.009739 0.00971137 -6.53684e-07 0.00972849 1.71352e-07 272.638 
-0.41 -0.81 -0.483882 0.499402 0.00975692 0.00971591 1.44454e-05 0.009744 1.716e-07 272.678 
-0.45 -0.79 -0.102952 0.460176 0.00974177 0.00972514 -8.41612e-06 0.00973594 1.71364e-07 272.827 
-0.49 -0.77 0.164267 0.263007 0.0097318 0.00971647 -2.19702e-07 0.00971698 1.71125e-07 272.677 
-0.39 -0.81 -0.332929 0.21874 0.00975402 0.00972437 1.18685e-05 0.00975903 1.71717e-07 272.912 
-0.43 -0.79 -0.308656 0.45205 0.00974849 0.00971057 -1.72929e-06 0.00973341 1.71393e-07 272.711 
-0.47 -0.77 -0.0814169 0.384289 0.00974734 0.00971996 -4.04847e-06 0.00973368 1.71236e-07 272.968 
-0.37 -0.81 0.134 0.116334 0.00975264 0.00971776 -1.27824e-07 0.00973931 1.71489e-07 272.723 
-0.41 -0.79 -0.378514 0.571416 0.00976908 0.00972322 4.45543e-06 0.00975381 1.71915e-07 272.453 
-0.45 -0.77 -0.524688 0.667823 0.0097585 0.00972817 -5.65461e-06 0.00974362 1.71497e-07 272.832 
-0.35 -0.81 0.133596 -0.0480194 0.00974193 0.00971648 6.80638e-06 0.0097397 1.71322e-07 273.001 
-0.39 -0.79 -0.159284 -0.260357 0.00977906 0.00971715 7.61927e-06 0.00975556 1.71783e-07 272.71 
-0.43 -0.77 -0.420451 0.508721 0.00974069 0.00970453 -3.98388e-06 0.00972485 1.7137e-07 272.508 
-0.37 -0.79 -0.237858 0.148249 0.00978069 0.00972693 1.39172e-05 0.0097545 1.71579e-07 273.006 
-0.41 -0.77 -0.348472 0.000360024 0.00973597 0.00971302 2.33682e-07 0.00973129 1.71532e-07 272.43 
-0.35 -0.79 -0.293327 -0.0239943 0.00977857 0.00971594 8.78788e-06 0.00975105 1.71711e-07 272.7 
-0.39 -0.77 0.0489997 -0.0930043 0.00974152 0.00972058 2.80484e-06 0.00974612 1.71616e-07 272.712 
-0.43 -0.75 0.253896 0.285599 0.00975859 0.00970717 -2.79523e-06 0.00973707 1.71476e-07 272.681 
-0.33 -0.79 -0.189517 0.286394 0.00977458 0.00971386 -6.31703e-06 0.0097361 1.71614e-07 272.435 
-0.37 -0.77 0.0340166 0.109588 0.00975906 0.00972193 -2.46965e-06 0.00974151 1.71463e-07 272.826 
-0.41 -0.75 0.253579 0.290686 0.00976303 0.00971303 3.22285e-06 0.00974835 1.71599e-07 272.801 
-0.35 -0.77 -0.167934 0.380717 0.00977426 0.00972796 2.26342e-06 0.00975701 1.71436e-07 273.303 
-0.39 -0.75 -0.262831 0.0624226 0.00976559 0.00971846 -1.77846e-06 0.00974704 1.71558e-07 272.83 
-0.49 -0.75 -0.165656 0.301689 0.00974128 0.0097286 -4.58313e-06 0.0097354 1.71041e-07 273.328 
-0.47 -0.75 -0.19261 0.484701 0.00974941 0.00972971 -1.75517e-05 0.00973207 1.71197e-07 272.986 
-0.45 -0.75 0.105752 0.59779 0.00974653 0.00970935 -1.04452e-05 0.00972512 1.71346e-07 272.553 
-0.49 -0.73 0.0150351 0.449604 0.00979597 0.00973482 3.28593e-06 0.00976744 1.71449e-07 273.575 
-0.47 -0.73 -0.0331946 0.42106 0.00977813 0.00974223 2.06634e-06 0.00976454 1.71429e-07 273.526 
-0.45 -0.73 -0.0630559 0.221907 0.00976722 0.00970125 -1.25593e-05 0.00974092 1.71511e-07 272.734 
-0.49 -0.71 -0.0190924 0.429225 0.00978427 0.00973668 5.55633e-06 0.00976511 1.71681e-07 273.14 
-0.43 -0.73 0.100947 0.445378 0.00975722 0.00970972 -3.56901e-06 0.00974155 1.71546e-07 272.695 
-0.47 -0.71 -0.0480506 0.576357 0.00978506 0.00974188 7.37393e-06 0.00976737 1.71691e-07 273.187 
-0.37 -0.75 -0.428207 -0.00743793 0.00974161 0.00972202 3.72691e-06 0.00973155 1.715e-07 272.488 
-0.41 -0.73 0.146318 0.280973 0.00975528 0.00970514 -9.12524e-06 0.00974095 1.71489e-07 272.77 
-0.45 -0.71 0.275819 -0.0243493 0.00976964 0.00971087 7.64742e-06 0.00974271 1.71486e-07 272.823 
-0.49 -0.69 0.0294135 0.377144 0.00977499 0.00972488 -6.73553e-06 0.00975606 1.71674e-07 272.898 
-0.35 -0.75 -0.0323478 0.185433 0.0097407 0.00972469 6.49274e-06 0.00974115 1.71543e-07 272.69 
-0.39 -0.73 0.15013 0.0940051 0.00976005 0.00970336 1.05926e-05 0.00973693 1.71307e-07 272.947 
-0.43 -0.71 0.0272725 0.24877 0.00976077 0.00971326 1.47765e-06 0.00974117 1.71569e-07 272.647 
-0.47 -0.69 0.416625 0.265694 0.0097771 0.00973189 1.34424e-05 0.00976472 1.71771e-07 272.986 
-0.37 -0.73 0.14397 0.0778636 0.00976968 0.00973232 8.64897e-06 0.0097575 1.71797e-07 272.742 
-0.41 -0.71 0.316029 0.358406 0.00976952 0.00969421 -4.04406e-06 0.00974268 1.71749e-07 272.404 
-0.45 -0.69 0.113226 0.322441 0.00979984 0.00972288 7.36436e-06 0.00976479 1.71923e-07 272.746 
-0.35 -0.73 -0.227197 0.217545 0.00975947 0.00972008 3.90791e-06 0.00975235 1.71551e-07 272.99 
-0.39 -0.71 0.0949805 0.21052 0.00977204 0.00970914 -4.52493e-06 0.00975029 1.71672e-07 272.739 
-0.43 -0.69 -0.0461996 0.363641 0.00980507 0.00972249 4.23406e-06 0.0097689 1.72296e-07 272.271 
-0.33 -0.73 -0.518076 0.11739 0.00976063 0.00970589 1.32586e-05 0.00974326 1.71725e-07 272.46 
-0.37 -0.71 0.059221 0.0655189 0.00975967 0.00972091 1.34709e-05 0.00975509 1.71804e-07 272.664 
-0.41 -0.69 -0.0984776 0.0609222 0.0097853 0.00970307 -2.91731e-06 0.00974611 1.7182e-07 272.388 
-0.35 -0.71 -0.311519 0.621909 0.0097575 0.00971514 5.94422e-06 0.00976138 1.7175e-07 272.927 
-0.39 -0.69 -0.0311411 0.221436 0.00976644 0.00969486 9.51838e-06 0.00973152 1.71588e-07 272.348 
-0.37 -0.69 -0.102144 0.321656 0.00977594 0.00970996 8.17746e-06 0.00974928 1.71622e-07 272.791 
-0.35 -0.69 -0.0021879 0.725364 0.00977974 0.00972562 1.67655e-05 0.00975734 1.71608e-07 273.038 
-0.35 -0.67 -0.191626 0.720212 0.00977793 0.00973579 1.1014e-05 0.00975127 1.71529e-07 272.995 
-0.33 -0.67 -0.153034 0.641977 0.00976219 0.00971646 7.30228e-06 0.00975346 1.71778e-07 272.661 
-0.33 -0.75 0.27914 0.117949 0.00973991 0.00971035 6.83113e-06 0.00973276 1.71469e-07 272.571 
-0.31 -0.73 -0.371838 0.866237 0.00976457 0.00972965 -9.76113e-07 0.00974869 1.71656e-07 272.72 
-0.29 -0.73 -0.257893 0.718576 0.00976228 0.00969429 1.58443e-06 0.00972959 1.71253e-07 272.826 
-0.33 -0.71 -0.456217 0.143418 0.00976524 0.0097191 5.84517e-06 0.00974971 1.71762e-07 272.58 
-0.27 -0.73 -0.385102 0.624778 0.00976064 0.00970892 4.62342e-06 0.00974162 1.71327e-07 273.046 
-0.31 -0.71 -0.27218 0.597568 0.00975721 0.0097263 6.76201e-06 0.00975655 1.71807e-07 272.701 
-0.29 -0.71 -0.177976 0.679814 0.00974676 0.00968951 6.33668e-06 0.00973232 1.71211e-07 272.97 
-0.33 -0.69 -0.139191 0.339918 0.00977654 0.00971555 -4.19327e-06 0.00975589 1.71854e-07 272.606 
-0.27 -0.71 -0.0468659 0.61515 0.00975163 0.0097015 5.09653e-07 0.00973106 1.71236e-07 272.894 
-0.31 -0.69 -0.560392 0.399826 0.00977739 0.00971532 1.51036e-05 0.0097583 1.71895e-07 272.61 
-0.29 -0.69 -0.479345 0.587577 0.0097731 0.00970607 1.06295e-05 0.00974804 1.71586e-07 272.814 
-0.27 -0.69 -0.288597 0.742889 0.00977132 0.0097036 3.38952e-06 0.00974698 1.7131e-07 273.223 
-0.31 -0.67 -0.18934 0.676739 0.00975652 0.00970431 4.51909e-06 0.00973559 1.71486e-07 272.623 
-0.29 -0.67 -0.425769 0.501351 0.00977019 0.00971917 5.75033e-06 0.00975257 1.71535e-07 273.021 
-0.41 -0.83 -0.0722852 0.40331 0.00975445 0.00972886 4.09255e-07 0.00974585 1.71641e-07 272.664 
-0.39 -0.83 -0.24137 0.549545 0.00974814 0.00971751 1.03701e-05 0.00973246 1.71372e-07 272.717 
-0.37 -0.83 -0.325404 0.161197 0.00973949 0.00971535 4.35372e-06 0.00973413 1.71396e-07 272.727 
-0.35 -0.83 -0.380783 -0.00343398 0.00974858 0.00972641 1.34905e-05 0.00973592 1.71336e-07 272.871 
-0.33 -0.83 -0.163071 0.192569 0.00974454 0.00970878 1.20986e-05 0.00972708 1.71047e-07 273.084 
-0.31 -0.83 -0.134982 -0.30794 0.00974345 0.00969084 8.26088e-06 0.00973016 1.71309e-07 272.753 
-0.29 -0.83 -0.254402 0.166287 0.00976363 0.00972195 1.01243e-05 0.00975414 1.71391e-07 273.295 
-0.27 -0.83 -0.248868 0.344824 0.00977051 0.00972189 9.46057e-06 0.00975597 1.71282e-07 273.521 
-0.27 -0.67 -0.737679 0.565041 0.00975775 0.00970319 1.2722e-05 0.00975 1.71585e-07 272.87 
-0.25 -0.67 -0.429812 0.747581 0.00976601 0.00970352 1.06526e-06 0.00975394 1.71499e-07 273.117 
-0.25 -0.81 -0.379619 0.363035 0.00977546 0.00971088 8.79089e-06 0.00974932 1.71484e-07 273.012 
-0.25 -0.79 -0.585047 0.272718 0.00976394 0.00972269 1.17678e-05 0.00974359 1.71276e-07 273.182 
-0.35 -0.55 -0.352459 0.759376 0.00979308 0.00971327 2.28962e-06 0.00975495 1.71791e-07 272.681 
-0.39 -0.53 -0.0534118 1.02172 0.00977492 0.00970418 1.35116e-06 0.00975325 1.7151e-07 273.08 
-0.37 -0.57 -0.29322 0.737732 0.00977639 0.00969785 5.06752e-06 0.00974408 1.71464e-07 272.897 
-0.41 -0.55 0.0296261 0.942509 0.00975554 0.00970194 -3.97383e-06 0.00974125 1.71475e-07 272.8 
-0.45 -0.53 0.187756 0.504162 0.00976784 0.00969784 -6.77544e-06 0.00972444 1.71283e-07 272.635 
-0.35 -0.57 -0.0812121 0.594638 0.00978116 0.00970529 2.58189e-05 0.0097481 1.71484e-07 272.977 
-0.39 -0.55 -0.248691 0.852928 0.00976368 0.00970163 1.18669e-05 0.00975334 1.7148e-07 273.13 
-0.43 -0.53 -0.0927079 0.528275 0.00977399 0.00970121 3.08265e-06 0.00974174 1.71683e-07 272.483 
-0.47 -0.51 -0.387384 0.586162 0.00976501 0.00969531 -6.23151e-06 0.00972479 1.71405e-07 272.45 
-0.37 -0.55 -0.239255 0.719516 0.00976083 0.00967948 -8.35103e-08 0.00973174 1.71103e-07 273.126 
-0.41 -0.53 -0.223105 0.831261 0.00977516 0.0097022 5.9854e-06 0.00974062 1.71528e-07 272.697 
-0.45 -0.51 -0.631685 0.774076 0.00976588 0.00969074 4.85691e-06 0.00973046 1.71516e-07 272.432 
-0.37 -0.53 -0.217513 0.904324 0.00977615 0.00969288 -4.74084e-06 0.00973737 1.71416e-07 272.786 
-0.41 -0.51 -0.573105 0.724491 0.00975864 0.0097045 -2.92007e-06 0.00973231 1.71469e-07 272.559 
-0.35 -0.53 -0.467867 0.874874 0.00975413 0.00969653 3.01446e-06 0.00972262 1.71413e-07 272.377 
-0.39 -0.51 -0.545215 0.850713 0.00976549 0.00969946 7.80104e-07 0.00973436 1.71526e-07 272.525 
-0.37 -0.51 -0.408061 0.998235 0.0097624 0.00968898 1.22793e-05 0.00972861 1.71386e-07 272.587 
-0.35 -0.51 -0.382946 0.886667 0.00975872 0.00969718 1.32715e-05 0.00972076 1.71297e-07 272.51 
-0.49 -0.65 0.0900043 0.270869 0.00976254 0.00971837 1.17479e-05 0.00975083 1.71624e-07 272.831 
-0.47 -0.65 -0.314155 0.271037 0.00976209 0.00973369 1.35706e-05 0.00975421 1.71729e-07 272.759 
-0.45 -0.65 -0.181497 0.507593 0.00975375 0.00972982 6.70823e-06 0.00975456 1.7196e-07 272.403 
-0.49 -0.63 -0.0767549 0.326576 0.00975475 0.00971751 6.35703e-06 0.00974996 1.71967e-07 272.263 
-0.43 -0.65 0.0684804 0.721356 0.00974631 0.0097013 7.16962e-07 0.00973477 1.71448e-07 272.662 
-0.47 -0.63 -0.089219 0.539157 0.00976345 0.00972705 1.02315e-06 0.00975469 1.71945e-07 272.43 
-0.41 -0.65 0.00318956 0.230248 0.00976024 0.00970308 8.44247e-06 0.00973447 1.71431e-07 272.68 
-0.45 -0.63 -0.270902 0.462337 0.00977413 0.00973527 1.28688e-05 0.00976285 1.71946e-07 272.656 
-0.49 -0.61 -0.113539 0.564454 0.00976845 0.00971379 -1.45401e-05 0.00975053 1.71764e-07 272.601 
-0.39 -0.65 -0.0426421 0.118291 0.00975308 0.00972028 5.62881e-06 0.00973799 1.71303e-07 272.982 
-0.43 -0.63 -0.365349 0.538013 0.00977346 0.00971359 1.68235e-06 0.00974806 1.71464e-07 273.007 
-0.47 -0.61 -0.438808 0.587796 0.00976973 0.0097204 -7.07593e-07 0.00975416 1.71778e-07 272.679 
-0.37 -0.65 -0.585645 0.46251 0.00974818 0.00968645 -2.46183e-06 0.00971643 1.70993e-07 272.872 
-0.41 -0.63 -0.458976 0.399961 0.00976565 0.00968844 3.76336e-06 0.00973056 1.71264e-07 272.836 
-0.45 -0.61 -0.29046 0.724281 0.0097722 0.00973435 -5.17229e-06 0.00976317 1.71745e-07 272.984 
-0.49 -0.59 -0.0192017 0.63068 0.00977047 0.00969379 -1.42055e-05 0.0097454 1.71489e-07 272.894 
-0.35 -0.65 -0.524094 0.358546 0.00975967 0.00973512 1.00499e-05 0.00974538 1.71539e-07 272.815 
-0.39 -0.63 -0.667468 0.455009 0.00977441 0.00972035 1.19199e-05 0.00974201 1.71513e-07 272.76 
-0.43 -0.61 -0.217494 0.546431 0.0097796 0.00970818 9.11253e-06 0.00974922 1.71406e-07 273.132 
-0.47 -0.59 0.0958787 0.827962 0.00977682 0.00972241 -9.08513e-06 0.00975728 1.71805e-07 272.724 
-0.37 -0.63 -0.620809 0.585588 0.00975735 0.00969464 7.57031e-06 0.00972541 1.71284e-07 272.659 
-0.41 -0.61 -0.460448 0.530972 0.00978122 0.009707 8.01933e-06 0.00974301 1.71307e-07 273.117 
-0.45 -0.59 -0.0711852 0.259132 0.00978356 0.00972535 -4.26266e-06 0.00976844 1.71766e-07 273.098 
-0.49 -0.57 -0.0648195 0.551049 0.00978278 0.00970081 -1.56179e-05 0.00974327 1.71363e-07 273.034 
-0.35 -0.63 -0.633135 0.25407 0.00975909 0.00972026 3.32933e-06 0.009734 1.71347e-07 272.8 
-0.39 -0.61 -0.301962 0.415083 0.00978028 0.00969736 7.25454e-06 0.00973476 1.71249e-07 272.978 
-0.43 -0.59 0.115949 0.690429 0.00978424 0.00970727 6.54309e-06 0.0097557 1.71835e-07 272.633 
-0.47 -0.57 -0.0183778 0.686991 0.00977826 0.0097225 -8.25634e-06 0.00974663 1.71657e-07 272.661 
-0.37 -0.61 -0.318294 0.578879 0.00978615 0.00971402 9.13028e-06 0.00974946 1.71493e-07 273.001 
-0.41 -0.59 0.316592 0.513842 0.00978199 0.00970338 2.21174e-06 0.00974623 1.71338e-07 273.158 
-0.45 -0.57 0.0865617 0.366895 0.00977193 0.00970463 -3.00139e-06 0.00973898 1.71429e-07 272.809 
-0.49 -0.55 -0.0297373 0.590442 0.00976385 0.00969724 -1.30587e-05 0.00973492 1.71412e-07 272.723 
-0.35 -0.61 -0.375797 0.333013 0.00978059 0.00970577 2.35137e-06 0.00973314 1.71277e-07 272.888 
-0.39 -0.59 0.0800349 0.58601 0.00978391 0.00967667 4.43865e-06 0.0097338 1.71203e-07 273.024 
-0.43 -0.57 0.120631 0.469776 0.00977099 0.0096986 9.46319e-07 0.00974007 1.71247e-07 273.13 
-0.47 -0.55 0.042063 0.661459 0.00977296 0.00970604 -9.57997e-06 0.0097369 1.71741e-07 272.256 
-0.33 -0.61 -0.728586 0.470165 0.0097746 0.00970482 1.97387e-05 0.00974676 1.71416e-07 273.049 
-0.37 -0.59 -0.014816 0.544201 0.0097882 0.00973371 1.58654e-05 0.00975766 1.71637e-07 273.001 
-0.41 -0.57 0.0475959 0.613019 0.00978636 0.00971069 1.52741e-05 0.00974904 1.71488e-07 272.998 
-0.45 -0.55 0.106375 0.220153 0.00976707 0.00970199 -6.45331e-07 0.00973084 1.71413e-07 272.607 
-0.49 -0.53 0.204012 0.530596 0.00977141 0.00969297 -5.69887e-06 0.00973678 1.71461e-07 272.697 
-0.35 -0.59 -0.41423 0.701396 0.00977549 0.00969295 1.62363e-05 0.00972963 1.71513e-07 272.414 
-0.39 -0.57 -0.212247 0.868663 0.00977797 0.00969098 -9.80507e-07 0.00974403 1.71449e-07 272.92 
-0.43 -0.55 0.0608691 0.40196 0.00976826 0.00970142 7.65994e-06 0.00974475 1.71498e-07 272.861 
-0.47 -0.53 0.208652 0.428625 0.00976238 0.00969601 -4.83262e-06 0.00972816 1.71389e-07 272.57 
-0.29 -0.57 -0.650683 0.510388 0.00976396 0.00969386 3.05448e-05 0.00973271 1.71219e-07 272.968 
-0.33 -0.55 -0.575377 0.891572 0.00980126 0.00971927 1.04824e-05 0.00974885 1.71607e-07 272.803 
-0.29 -0.61 -0.445662 0.686402 0.00976664 0.00971287 9.21854e-07 0.0097433 1.71702e-07 272.496 
-0.33 -0.59 -0.393387 0.79773 0.00977503 0.00970819 1.61385e-05 0.009742 1.71373e-07 272.983 
-0.27 -0.61 -0.524738 0.49371 0.00977457 0.0096951 2.01155e-05 0.00974393 1.71522e-07 272.8 
-0.31 -0.59 -0.70363 0.572984 0.00978125 0.00973622 1.22638e-05 0.00975532 1.71688e-07 272.855 
-0.29 -0.59 -0.390163 0.28199 0.00978674 0.00970393 1.19571e-05 0.00974828 1.71524e-07 272.919 
-0.33 -0.57 -0.24435 0.865341 0.00977924 0.00971483 3.46657e-06 0.00974119 1.7142e-07 272.886 
-0.27 -0.59 -0.282252 0.818861 0.0097718 0.00968401 2.15462e-05 0.00973238 1.71154e-07 273.062 
-0.31 -0.57 -0.23549 0.578299 0.00977922 0.00972476 4.57325e-06 0.00974957 1.71574e-07 272.875 
-0.27 -0.57 -0.789766 0.679136 0.00976197 0.00969373 2.57835e-05 0.00974123 1.71469e-07 272.809 
-0.31 -0.55 -0.265385 0.81218 0.00977658 0.00970251 3.18567e-05 0.00974223 1.71337e-07 273.047 
-0.29 -0.55 -0.411993 0.59858 0.00976789 0.00969337 3.04018e-05 0.00973087 1.71173e-07 272.99 
-0.33 -0.53 -0.237408 0.93768 0.00974947 0.00969469 1.88e-05 0.00971941 1.7109e-07 272.801 
-0.27 -0.55 -0.435897 0.631579 0.00976252 0.00969528 1.74099e-05 0.00972231 1.71327e-07 272.504 
-0.31 -0.53 -0.236744 0.660887 0.0097591 0.00970691 3.0358e-05 0.0097355 1.71362e-07 272.819 
-0.29 -0.53 -0.391916 0.779337 0.00978254 0.00969866 2.97307e-05 0.00974397 1.71317e-07 273.128 
-0.33 -0.51 -0.48872 0.743989 0.00974914 0.00968002 1.83501e-05 0.00971239 1.70879e-07 272.94 
-0.27 -0.53 -0.595965 0.802219 0.00977809 0.00969909 3.0612e-05 0.00973842 1.7123e-07 273.111 
-0.31 -0.51 -0.247605 0.553646 0.00975466 0.00970124 1.47965e-05 0.00972051 1.71028e-07 272.931 
-0.29 -0.51 -0.135296 0.974502 0.00975149 0.00969448 2.15759e-05 0.00973128 1.71184e-07 272.984 
-0.27 -0.51 -0.271918 1.16479 0.00976411 0.00970677 3.62514e-05 0.00974308 1.71286e-07 273.153 
-0.33 -0.65 -0.476797 0.519424 0.00977525 0.00971677 1.48542e-05 0.00975661 1.71514e-07 273.168 
-0.31 -0.65 -0.354134 0.775098 0.00977772 0.00971519 1.24131e-05 0.00975541 1.71643e-07 272.93 
-0.29 -0.65 -0.31426 0.70836 0.00975437 0.00970329 1.41249e-05 0.00973697 1.71371e-07 272.846 
-0.33 -0.63 -0.368875 0.599205 0.00975575 0.00972035 1.18333e-05 0.0097483 1.71606e-07 272.789 
-0.27 -0.65 -0.394001 0.566593 0.00976557 0.00971474 7.32491e-06 0.00974843 1.71502e-07 272.958 
-0.31 -0.63 -0.559871 0.631998 0.00974258 0.00969809 1.32926e-05 0.00973337 1.71222e-07 272.981 
-0.25 -0.65 -0.541424 0.44769 0.00975337 0.00969876 5.14291e-06 0.00973979 1.71592e-07 272.573 
-0.29 -0.63 -0.718985 0.513048 0.00976588 0.00972608 9.96646e-06 0.00974908 1.71609e-07 272.807 
-0.27 -0.63 -0.524053 0.6414 0.00975106 0.00970811 4.19303e-06 0.00974313 1.71625e-07 272.614 
-0.31 -0.61 -0.692599 0.719687 0.00978029 0.00972492 1.48776e-05 0.00975476 1.7161e-07 272.963 
-0.49 -0.67 -0.000939928 0.323847 0.00977221 0.00971605 4.79326e-06 0.00974895 1.71479e-07 273.009 
-0.47 -0.67 0.0403672 -0.0427576 0.00976951 0.00973555 -4.49102e-06 0.0097522 1.71826e-07 272.548 
-0.45 -0.67 0.00549122 0.752826 0.00976084 0.00972533 4.05603e-06 0.00974761 1.71793e-07 272.473 