ITEM: TIMESTEP
904000
ITEM: NUMBER OF CELLS
5000
ITEM: BOX BOUNDS ss ss pp
-0.5 0.5
-1 1
-0.5 0.5
ITEM: CELLS xc yc f_U[*] f_V[*] f_Tau[1] f_Tau[2] f_Tau[3] f_Press[*] f_Mrho[*] f_Ttra[*] 
-0.49 -0.99 -0.0932365 0.114566 0.00975722 0.00972956 1.22506e-05 0.00975006 1.71712e-07 272.67 
-0.47 -0.99 -0.19702 -0.116784 0.00974523 0.00971607 9.85876e-07 0.00973484 1.71448e-07 272.664 
-0.45 -0.99 -0.237815 0.0775074 0.00974433 0.00972988 7.21338e-06 0.00974409 1.71483e-07 272.867 
-0.49 -0.97 -0.0579901 0.161433 0.00973777 0.00972411 1.00139e-05 0.00973441 1.7134e-07 272.823 
-0.43 -0.99 -0.319027 -0.0378336 0.00973354 0.0097262 3.09948e-06 0.0097367 1.71205e-07 273.103 
-0.47 -0.97 -0.112701 0.0186099 0.00974142 0.00971766 1.30077e-05 0.00973802 1.71293e-07 272.999 
-0.41 -0.99 -0.119005 -0.0709672 0.00972869 0.00972534 4.51772e-06 0.00972959 1.71293e-07 272.763 
-0.45 -0.97 -0.115602 0.0860403 0.00973806 0.00972891 2.60405e-06 0.00973844 1.71357e-07 272.908 
-0.49 -0.95 0.0585106 0.110365 0.00973382 0.00970619 -2.26421e-06 0.00972693 1.71183e-07 272.864 
-0.39 -0.99 -0.200616 0.10063 0.00973015 0.0097167 -2.25718e-06 0.00971697 1.70831e-07 273.145 
-0.43 -0.97 0.0599328 -0.0526603 0.00974869 0.00973335 9.7319e-07 0.00974024 1.71354e-07 272.964 
-0.47 -0.95 0.00956012 0.16714 0.00974702 0.00972152 2.63313e-06 0.00973301 1.7124e-07 272.944 
-0.37 -0.99 -0.203656 -0.0450573 0.00973253 0.00972545 4.95028e-06 0.00972881 1.71163e-07 272.948 
-0.41 -0.97 -0.0557107 -0.166642 0.00973991 0.00972243 5.84244e-06 0.00972985 1.71104e-07 273.071 
-0.45 -0.95 0.12176 -0.211317 0.00974929 0.00973942 8.32419e-06 0.00974396 1.71512e-07 272.816 
-0.49 -0.93 -0.0454848 0.100934 0.00976945 0.00971726 4.85132e-06 0.0097439 1.71415e-07 272.97 
-0.35 -0.99 -0.0363492 -0.155735 0.00971882 0.00969238 1.3548e-05 0.00970451 1.7081e-07 272.829 
-0.39 -0.97 0.22827 0.0327497 0.00973451 0.00971968 1.35889e-05 0.00973207 1.71261e-07 272.884 
-0.43 -0.95 0.137588 -0.0407554 0.00975117 0.00972164 8.8716e-06 0.00973603 1.71371e-07 272.818 
-0.47 -0.93 0.139361 -0.0336048 0.00976338 0.00971657 5.2052e-07 0.00973837 1.71304e-07 272.992 
-0.33 -0.99 -0.0206667 0.0475023 0.00973239 0.00972804 3.68963e-06 0.00972238 1.71122e-07 272.832 
-0.37 -0.97 0.151324 -0.0729606 0.0097318 0.00971951 2.3269e-06 0.0097284 1.71239e-07 272.816 
-0.41 -0.95 0.0195561 -0.206635 0.00974866 0.00972874 5.36114e-06 0.00973719 1.71396e-07 272.813 
-0.45 -0.93 0.044412 -0.0156672 0.00975873 0.00973286 3.84823e-06 0.00974208 1.71528e-07 272.739 
-0.49 -0.91 0.144111 0.00393703 0.0097738 0.00972421 1.21711e-05 0.0097467 1.71277e-07 273.268 
-0.35 -0.97 -0.0327727 -0.112155 0.00973469 0.00970153 5.37198e-06 0.00971611 1.70981e-07 272.881 
-0.39 -0.95 -0.0639154 -0.0130807 0.00974129 0.00971761 2.9927e-06 0.00972707 1.71384e-07 272.548 
-0.43 -0.93 -0.00400259 -0.0507713 0.00975136 0.00971739 5.50284e-06 0.00972665 1.71096e-07 272.994 
-0.47 -0.91 -0.21304 0.00562205 0.0097665 0.00971668 4.59307e-06 0.0097413 1.71433e-07 272.868 
-0.33 -0.97 -0.119869 -0.0503811 0.00973567 0.00972284 2.11596e-06 0.00973212 1.71358e-07 272.73 
-0.37 -0.95 -0.157623 0.113715 0.00974933 0.00972084 1.98584e-05 0.00974107 1.71334e-07 273.02 
-0.41 -0.93 -0.0207185 -0.122905 0.00975486 0.00973603 2.06726e-05 0.00973284 1.71367e-07 272.736 
-0.45 -0.91 -0.0459024 -0.0460008 0.00976428 0.00972615 1.2695e-05 0.00974645 1.7144e-07 273.001 
-0.49 -0.89 -0.1453 0.0892474 0.00977161 0.00972329 8.62626e-06 0.00974619 1.71489e-07 272.915 
-0.35 -0.95 -0.146885 -0.0958922 0.0097527 0.00970947 -1.24064e-06 0.00973313 1.71376e-07 272.729 
-0.39 -0.93 -0.206918 -0.00298581 0.00974723 0.00971731 9.27765e-06 0.00972869 1.71374e-07 272.609 
-0.43 -0.91 -0.224358 -0.109832 0.00975106 0.00972495 1.45273e-05 0.00973405 1.71097e-07 273.2 
-0.47 -0.89 0.0163126 0.0214307 0.00976152 0.00971992 1.64185e-05 0.00974339 1.71566e-07 272.715 
-0.37 -0.93 0.00975018 0.0421291 0.00974894 0.00972077 -3.82957e-06 0.00973778 1.71334e-07 272.927 
-0.41 -0.91 -0.213944 0.0722518 0.00975794 0.0097201 8.16617e-06 0.00973564 1.71381e-07 272.793 
-0.45 -0.89 -0.225871 0.0242805 0.00975808 0.00971967 5.62692e-06 0.00974414 1.71369e-07 273.05 
-0.49 -0.87 -0.0169475 0.139237 0.00973442 0.00970596 2.80764e-06 0.00971761 1.71069e-07 272.785 
-0.35 -0.93 -0.344982 0.115304 0.00975204 0.00971577 1.4504e-06 0.00972664 1.7141e-07 272.494 
-0.39 -0.91 -0.143613 -0.0908082 0.00977222 0.00973406 1.19818e-05 0.00975789 1.71652e-07 272.984 
-0.43 -0.89 -0.215515 0.00770708 0.00977351 0.00973203 1.23063e-05 0.009753 1.714e-07 273.248 
-0.47 -0.87 0.0915455 0.0714188 0.00974878 0.00972387 5.95663e-06 0.00973599 1.71347e-07 272.856 
-0.37 -0.91 -0.243154 0.240921 0.00975889 0.00972885 2.35914e-06 0.00974258 1.71603e-07 272.634 
-0.41 -0.89 -0.161346 0.0246721 0.00976645 0.00971774 3.15319e-06 0.00974607 1.71539e-07 272.833 
-0.45 -0.87 -0.130473 0.0910084 0.00976093 0.00971389 1.06186e-05 0.00974789 1.7145e-07 273.025 
-0.49 -0.85 0.0124598 0.135782 0.00974046 0.00970513 -3.43708e-06 0.00971498 1.71073e-07 272.703 
-0.35 -0.91 -0.103798 0.187066 0.00975208 0.00971095 4.72063e-06 0.00972525 1.71248e-07 272.713 
-0.39 -0.89 -0.220126 0.064974 0.00976558 0.00972422 1.12889e-05 0.00974268 1.71387e-07 272.98 
-0.43 -0.87 -0.125125 0.00797942 0.0097511 0.00973782 8.80285e-06 0.00975079 1.7156e-07 272.932 
-0.47 -0.85 -0.0326593 0.193487 0.00974837 0.00972055 3.40759e-06 0.00973778 1.71328e-07 272.936 
-0.33 -0.91 -0.124887 -0.0333585 0.0097544 0.00970654 7.40864e-06 0.00973331 1.71327e-07 272.813 
-0.37 -0.89 -0.322432 0.0860385 0.00977482 0.00974074 1.83278e-05 0.00975804 1.7143e-07 273.342 
-0.41 -0.87 -0.243509 0.0889987 0.00975792 0.00972606 1.02051e-05 0.0097432 1.71556e-07 272.725 
-0.45 -0.85 -0.0146364 0.147313 0.00974603 0.00970802 8.78597e-06 0.00973142 1.71281e-07 272.833 
-0.35 -0.89 -0.300038 0.145271 0.00976679 0.00970602 9.62633e-06 0.00972785 1.71184e-07 272.888 
-0.39 -0.87 -0.147324 0.0474659 0.00975865 0.00971807 5.11054e-06 0.00973722 1.71559e-07 272.554 
-0.43 -0.85 -0.113911 0.0369144 0.00976285 0.00974044 -5.71321e-07 0.00974634 1.71559e-07 272.808 
-0.37 -0.87 -0.265669 0.174073 0.00976697 0.00973215 9.3407e-06 0.00974691 1.71512e-07 272.899 
-0.41 -0.85 -0.149193 0.0238351 0.00976002 0.00972339 7.47847e-06 0.00974322 1.71561e-07 272.719 
-0.35 -0.87 -0.19534 0.206516 0.00977453 0.00972104 8.42783e-06 0.00974306 1.71406e-07 272.961 
-0.39 -0.85 -0.285229 0.319371 0.00976249 0.00972829 -7.08402e-07 0.00974656 1.7158e-07 272.782 
-0.33 -0.87 -0.504932 -0.00946746 0.00977198 0.0097174 8.85432e-06 0.00974383 1.71442e-07 272.924 
-0.37 -0.85 -0.362772 -0.0472816 0.00975967 0.00971819 6.8304e-06 0.009742 1.71389e-07 272.958 
-0.35 -0.85 -0.344798 0.239047 0.00976101 0.00972203 1.13968e-05 0.00973967 1.71175e-07 273.233 
-0.33 -0.85 -0.452322 0.365136 0.00975487 0.00971741 1.38852e-05 0.00973163 1.71078e-07 273.162 
-0.31 -0.99 0.019376 0.0119024 0.00972772 0.00970023 1.14865e-05 0.00971067 1.71079e-07 272.573 
-0.29 -0.99 -0.287245 0.277585 0.00972882 0.00970941 9.71456e-06 0.00971697 1.71084e-07 272.742 
-0.27 -0.99 -0.272663 -0.230998 0.009751 0.00972263 7.93015e-06 0.0097306 1.71081e-07 273.129 
-0.31 -0.97 -0.379587 0.0924966 0.00974653 0.00970906 2.26222e-06 0.00973445 1.71357e-07 272.797 
-0.29 -0.97 -0.353609 0.248376 0.00975582 0.00970916 5.57558e-06 0.00974396 1.71583e-07 272.703 
-0.33 -0.95 -0.131096 0.205359 0.00974816 0.00971669 3.07807e-06 0.00973279 1.71266e-07 272.896 
-0.27 -0.97 -0.20684 -0.196465 0.00974051 0.00971734 8.43373e-06 0.00973338 1.71424e-07 272.66 
-0.31 -0.95 -0.244973 0.219316 0.00973891 0.00971336 4.97163e-06 0.00972962 1.71303e-07 272.748 
-0.29 -0.95 -0.108615 0.0556646 0.00973048 0.00968944 6.53842e-06 0.00971114 1.71121e-07 272.519 
-0.33 -0.93 -0.343947 0.246592 0.00975378 0.00970808 4.60118e-06 0.00973053 1.71282e-07 272.807 
-0.27 -0.95 -0.379512 -0.110485 0.00974343 0.00973746 4.21534e-06 0.00973436 1.71374e-07 272.768 
-0.31 -0.93 -0.189698 0.132705 0.00975459 0.00971044 9.64355e-06 0.00973276 1.715e-07 272.523 
-0.29 -0.93 -0.279973 0.15704 0.00975733 0.00969497 5.75701e-06 0.0097258 1.71335e-07 272.59 
-0.27 -0.93 -0.135662 -0.0639272 0.00976879 0.00973484 -2.42075e-06 0.00975557 1.71605e-07 272.994 
-0.31 -0.91 -0.180794 0.366156 0.00976231 0.00971057 1.5255e-06 0.00973939 1.71464e-07 272.765 
-0.29 -0.91 -0.27419 -0.0477408 0.00976143 0.00970462 -7.82117e-06 0.00972843 1.71334e-07 272.665 
-0.33 -0.89 -0.223976 -0.030794 0.0097638 0.00971885 -6.92315e-07 0.00973429 1.7129e-07 272.899 
-0.27 -0.91 -0.136531 -0.0452619 0.00975888 0.00971758 1.73526e-06 0.00973053 1.71469e-07 272.509 
-0.31 -0.89 -0.117354 0.297559 0.00976643 0.00970832 -2.60889e-06 0.00973917 1.71532e-07 272.651 
-0.29 -0.89 -0.124134 -0.0569679 0.00976377 0.0097098 8.30766e-07 0.00973813 1.71318e-07 272.963 
-0.27 -0.89 -0.241384 0.0951213 0.00974609 0.00970441 1.10043e-05 0.00973358 1.71374e-07 272.746 
-0.31 -0.87 -0.484047 0.0951094 0.00975048 0.00971123 7.23678e-06 0.00972788 1.71344e-07 272.633 
-0.29 -0.87 -0.264542 -0.0158063 0.00973441 0.00969555 1.08325e-05 0.00972168 1.71182e-07 272.718 
-0.27 -0.87 -0.30718 0.325857 0.00973915 0.00971479 1.01177e-05 0.00972814 1.71312e-07 272.692 
-0.31 -0.85 -0.445183 -0.0996897 0.00975487 0.00970861 2.13249e-05 0.00973214 1.71414e-07 272.642 
-0.29 -0.85 -0.300958 -0.0414539 0.00974863 0.00969879 1.71749e-05 0.00974133 1.71571e-07 272.65 
-0.27 -0.85 -0.410934 0.233245 0.0097462 0.00971276 4.96337e-06 0.00973428 1.71074e-07 273.244 
-0.25 -0.99 -0.224298 0.0725985 0.00975423 0.00974074 7.16485e-06 0.00974899 1.71385e-07 273.16 
-0.25 -0.97 -0.190786 0.201086 0.00974464 0.00974149 -2.50215e-06 0.00974508 1.71604e-07 272.701 
-0.25 -0.95 -0.399668 0.0918893 0.00973782 0.00973844 4.65905e-06 0.00973916 1.7143e-07 272.813 
-0.25 -0.93 -0.0713568 0.0274083 0.00976166 0.00973788 1.13692e-05 0.00974916 1.71603e-07 272.818 
-0.25 -0.91 -0.188712 0.0426416 0.00975882 0.00972847 1.67633e-05 0.00974519 1.71545e-07 272.799 
-0.25 -0.89 -0.471655 0.100942 0.00975007 0.00971846 1.25862e-05 0.0097335 1.71168e-07 273.072 
-0.25 -0.87 -0.450904 0.11706 0.00973149 0.00970795 1.034e-05 0.00972701 1.71028e-07 273.113 
-0.25 -0.85 -0.335949 0.446998 0.00976046 0.00971217 5.87334e-06 0.00973909 1.71227e-07 273.135 
-0.25 -0.83 -0.466671 0.211953 0.00976036 0.00970057 1.84255e-06 0.00973938 1.71146e-07 273.272 
-0.33 -0.81 -0.0160194 0.190625 0.0097582 0.00970449 9.41838e-06 0.00972624 1.71243e-07 272.748 
-0.31 -0.81 -0.293859 0.328618 0.00977791 0.00971321 1.2529e-05 0.00974123 1.71202e-07 273.235 
-0.29 -0.81 -0.263495 0.149567 0.00977656 0.00970901 5.68893e-06 0.00974498 1.71286e-07 273.206 
-0.27 -0.81 -0.389223 0.160929 0.00977623 0.00972671 1.05948e-05 0.00975875 1.71579e-07 273.124 
-0.31 -0.79 -0.199053 0.133526 0.0097632 0.00971005 4.60837e-06 0.0097332 1.71403e-07 272.689 
-0.29 -0.79 -0.386162 0.531349 0.00975834 0.00970746 7.87965e-06 0.00972566 1.71271e-07 272.688 
-0.33 -0.77 -0.481132 0.293996 0.0097646 0.00972102 1.48706e-05 0.00973799 1.71293e-07 272.999 
-0.27 -0.79 -0.590661 0.220204 0.00975548 0.00971559 1.22462e-05 0.0097338 1.71414e-07 272.689 
-0.31 -0.77 -0.342657 0.192794 0.00975194 0.0096922 8.74858e-06 0.00972075 1.71174e-07 272.704 
-0.29 -0.77 -0.317924 0.528702 0.009761 0.00971766 1.27628e-05 0.00973671 1.71487e-07 272.654 
-0.27 -0.77 -0.393109 0.210316 0.00975937 0.00970354 1.00576e-05 0.00973163 1.7141e-07 272.635 
-0.31 -0.75 -0.137446 0.418916 0.00975067 0.00970805 7.9586e-06 0.00974039 1.71503e-07 272.731 
-0.29 -0.75 -0.475823 0.58765 0.00974734 0.00970872 9.94566e-06 0.00973405 1.71402e-07 272.715 
-0.27 -0.75 -0.584157 0.612555 0.00975179 0.00970708 1.2841e-05 0.00972636 1.71208e-07 272.808 
-0.49 -0.83 -0.0445033 0.130704 0.00975385 0.00971165 3.93736e-06 0.00973303 1.71472e-07 272.574 
-0.47 -0.83 0.0261509 0.132774 0.00974931 0.00971162 8.99521e-07 0.00973108 1.71443e-07 272.566 
-0.45 -0.83 -0.0616622 0.21538 0.00975162 0.00972282 -3.8159e-06 0.00974315 1.71429e-07 272.927 
-0.49 -0.81 0.0487166 0.0143055 0.00975096 0.00971417 -4.62056e-06 0.00973864 1.7136e-07 272.909 
-0.43 -0.83 -0.152975 0.068306 0.00974113 0.00972025 3.68937e-06 0.00972594 1.71341e-07 272.585 
-0.47 -0.81 -0.0556596 0.253852 0.00975493 0.00971521 -2.5752e-06 0.00974727 1.71523e-07 272.892 
-0.45 -0.81 -0.0760273 0.267117 0.00975982 0.00971942 3.41464e-06 0.00974189 1.71657e-07 272.528 
-0.49 -0.79 -0.104758 0.295018 0.00975201 0.0097136 5.23515e-06 0.00973558 1.71349e-07 272.841 
-0.43 -0.81 -0.224893 0.232648 0.00976486 0.00972106 -2.2216e-06 0.00974194 1.71812e-07 272.283 
-0.47 -0.79 -0.0614474 0.0625899 0.00974163 0.00970992 -4.13844e-06 0.00973233 1.7135e-07 272.748 
-0.41 -0.81 -0.443053 0.229773 0.0097561 0.00972273 9.81319e-06 0.00974451 1.71558e-07 272.759 
-0.45 -0.79 -0.0585974 0.409884 0.00974582 0.00972638 -7.08195e-06 0.00973927 1.71444e-07 272.795 
-0.49 -0.77 0.151232 0.1655 0.00973907 0.0097094 2.87167e-06 0.00972527 1.71123e-07 272.913 
-0.39 -0.81 -0.23793 0.0773197 0.00974832 0.00972241 1.22772e-05 0.00974784 1.71686e-07 272.649 
-0.43 -0.79 -0.290719 0.332032 0.00975375 0.0097154 -9.93732e-07 0.00973873 1.71494e-07 272.699 
-0.47 -0.77 -0.110353 0.260018 0.00975065 0.00972051 -1.49485e-06 0.00973786 1.7132e-07 272.952 
-0.37 -0.81 0.122275 0.263579 0.00975184 0.00971501 5.67647e-06 0.0097369 1.7163e-07 272.432 
-0.41 -0.79 -0.356688 0.338619 0.00976024 0.00972139 5.127e-06 0.00974688 1.71768e-07 272.491 
-0.45 -0.77 -0.363228 0.603638 0.00974739 0.00972625 -4.51189e-06 0.00973649 1.71461e-07 272.689 
-0.35 -0.81 0.0865076 0.191998 0.00974426 0.00971371 4.97225e-06 0.009734 1.71324e-07 272.837 
-0.39 -0.79 -0.218642 -0.173791 0.00976763 0.00971853 5.66049e-06 0.00974909 1.71776e-07 272.542 
-0.43 -0.77 -0.345878 0.47066 0.00973509 0.00970675 1.72016e-08 0.00972093 1.71271e-07 272.556 
-0.37 -0.79 -0.388202 0.240574 0.00977283 0.00971331 9.14116e-06 0.00974534 1.71568e-07 272.767 
-0.41 -0.77 -0.395304 -0.0196992 0.00973693 0.00971795 1.10222e-06 0.00973175 1.71496e-07 272.501 
-0.35 -0.79 -0.303893 0.118138 0.00977229 0.00971407 1.22815e-05 0.00974116 1.71681e-07 272.47 
-0.39 -0.77 -0.144332 0.0736826 0.00973747 0.00972074 2.24995e-06 0.00974082 1.7154e-07 272.685 
-0.43 -0.75 0.150298 0.30798 0.00976165 0.00971247 -4.60414e-06 0.00973462 1.71344e-07 272.822 
-0.33 -0.79 -0.294082 0.414568 0.00976428 0.00970986 -9.75017e-08 0.00972644 1.71481e-07 272.376 
-0.37 -0.77 -0.0877641 0.213628 0.00974839 0.00970874 -2.29908e-06 0.00973242 1.71459e-07 272.578 
-0.41 -0.75 0.0641548 0.279202 0.00976395 0.00971303 2.57371e-06 0.00974788 1.71627e-07 272.744 
-0.35 -0.77 -0.332674 0.49416 0.00976511 0.00971567 3.37007e-06 0.00974294 1.7135e-07 273.046 
-0.39 -0.75 -0.268053 0.140408 0.00976707 0.00972281 1.40277e-06 0.00974574 1.71471e-07 272.931 
-0.49 -0.75 -0.133647 0.140737 0.00974169 0.0097235 -2.61922e-06 0.00973954 1.71084e-07 273.376 
-0.47 -0.75 -0.0340547 0.353174 0.00974766 0.00972778 -9.96101e-06 0.00973209 1.71146e-07 273.067 
-0.45 -0.75 0.00470502 0.690202 0.00975247 0.00971214 -5.27455e-06 0.00972417 1.71275e-07 272.639 
-0.49 -0.73 -0.0184529 0.331885 0.00978397 0.00972504 3.12188e-06 0.00975612 1.71319e-07 273.466 
-0.47 -0.73 -0.264352 0.369388 0.00976987 0.00973805 7.03498e-07 0.00975319 1.71329e-07 273.367 
-0.45 -0.73 -0.167359 0.392408 0.00976265 0.00970903 -1.11242e-05 0.00973692 1.71512e-07 272.62 
-0.49 -0.71 -0.0727752 0.443034 0.00978013 0.00972401 2.74982e-06 0.00975322 1.7156e-07 273 
-0.43 -0.73 0.00572426 0.451669 0.00975618 0.00971115 -3.88786e-06 0.00973554 1.71445e-07 272.688 
-0.47 -0.71 -0.0772993 0.556599 0.00978695 0.00973561 2.36144e-06 0.00976044 1.71709e-07 272.965 
-0.37 -0.75 -0.358805 0.158696 0.00974637 0.0097095 7.10257e-06 0.00972646 1.7138e-07 272.536 
-0.41 -0.73 0.0442282 0.318773 0.00975843 0.00970473 -5.94301e-06 0.00973963 1.71573e-07 272.599 
-0.45 -0.71 0.163291 0.0474006 0.00977511 0.00971966 2.36624e-06 0.00974815 1.71547e-07 272.879 
-0.49 -0.69 -0.0302126 0.475246 0.00977229 0.00971707 -1.10193e-05 0.00974813 1.71541e-07 272.887 
-0.35 -0.75 -0.0314394 0.35831 0.00973577 0.00970877 5.58871e-06 0.00972904 1.71361e-07 272.64 
-0.39 -0.73 0.0454898 0.20699 0.009757 0.00971133 1.32003e-05 0.0097375 1.71316e-07 272.947 
-0.43 -0.71 -0.0927586 0.392436 0.00976395 0.00971226 1.15178e-06 0.00974388 1.71561e-07 272.736 
-0.47 -0.69 0.224997 0.358996 0.00977084 0.00972392 4.75545e-06 0.00975182 1.71507e-07 273.046 
-0.37 -0.73 0.0129591 0.255542 0.00976583 0.00971743 1.11911e-05 0.00974651 1.71613e-07 272.728 
-0.41 -0.71 0.206966 0.436612 0.00976121 0.0096887 2.78839e-07 0.00973254 1.71633e-07 272.305 
-0.45 -0.69 -0.121052 0.332798 0.00978606 0.0097223 1.06599e-05 0.00975747 1.71797e-07 272.742 
-0.35 -0.73 -0.386248 0.337948 0.00975864 0.0097085 6.98177e-06 0.00974323 1.71487e-07 272.836 
-0.39 -0.71 0.0472199 0.180085 0.00976816 0.00971329 2.7801e-06 0.00974375 1.71584e-07 272.696 
-0.43 -0.69 -0.217112 0.42867 0.00978579 0.00971888 7.63488e-06 0.00975813 1.72013e-07 272.417 
-0.33 -0.73 -0.415054 0.226191 0.00976122 0.00970169 1.03024e-05 0.00973762 1.71598e-07 272.502 
-0.37 -0.71 0.0870774 0.350019 0.00976141 0.00971528 1.8414e-05 0.00974807 1.71691e-07 272.647 
-0.41 -0.69 -0.172786 0.126742 0.00977431 0.00969983 5.29825e-07 0.00973818 1.71679e-07 272.389 
-0.35 -0.71 -0.168053 0.642263 0.00976045 0.00970808 2.07123e-06 0.00975501 1.71788e-07 272.687 
-0.39 -0.69 -0.116454 0.267323 0.00975961 0.00969649 1.17061e-05 0.0097302 1.71482e-07 272.479 
-0.37 -0.69 -0.153635 0.466148 0.00977078 0.00971242 9.2524e-06 0.00974716 1.71529e-07 272.88 
-0.35 -0.69 -0.152397 0.770859 0.00977074 0.00971478 1.77181e-05 0.00974554 1.71524e-07 272.842 
-0.35 -0.67 -0.200536 0.767131 0.00977734 0.00972996 1.06397e-05 0.00975172 1.71509e-07 273.039 
-0.33 -0.67 -0.289419 0.789092 0.00975904 0.00970145 2.59427e-06 0.00974667 1.71627e-07 272.71 
-0.33 -0.75 0.115647 0.266584 0.00973785 0.00970627 8.38228e-06 0.00973006 1.71389e-07 272.623 
-0.31 -0.73 -0.412483 0.660698 0.00975812 0.00971389 4.70091e-06 0.00973945 1.7145e-07 272.789 
-0.29 -0.73 -0.384085 0.7536 0.00976314 0.0096982 4.47888e-06 0.00973608 1.71328e-07 272.89 
-0.33 -0.71 -0.413685 0.223986 0.00975831 0.00970403 1.02343e-05 0.00974192 1.71647e-07 272.545 
-0.27 -0.73 -0.485234 0.584689 0.00976504 0.00971675 8.51423e-06 0.00974437 1.71382e-07 273.035 
-0.31 -0.71 -0.420249 0.652944 0.00975739 0.00971798 9.3526e-06 0.0097437 1.71632e-07 272.618 
-0.29 -0.71 -0.350002 0.684754 0.00975027 0.00969348 8.24247e-06 0.00972835 1.71192e-07 272.889 
-0.33 -0.69 -0.247331 0.515027 0.00978044 0.00970222 -5.05795e-06 0.00974932 1.7176e-07 272.573 
-0.27 -0.71 -0.297691 0.585062 0.00975249 0.0097079 4.73426e-06 0.00973029 1.71197e-07 272.936 
-0.31 -0.69 -0.481654 0.57171 0.00978277 0.00971581 1.16807e-05 0.00975878 1.71866e-07 272.669 
-0.29 -0.69 -0.450839 0.609131 0.00977751 0.00970017 1.31107e-05 0.00974223 1.71572e-07 272.674 
-0.27 -0.69 -0.302415 0.671499 0.00977922 0.00971195 3.19933e-06 0.00974678 1.71311e-07 273.216 
-0.31 -0.67 -0.312562 0.707178 0.00975772 0.00970174 2.43775e-06 0.00973376 1.71521e-07 272.517 
-0.29 -0.67 -0.362716 0.458613 0.00976921 0.00970818 9.76796e-06 0.00974453 1.71482e-07 272.88 
-0.41 -0.83 -0.0965795 0.161178 0.00975293 0.00972603 -1.03727e-06 0.00974033 1.71543e-07 272.665 
-0.39 -0.83 -0.28091 0.376053 0.00975101 0.00972864 7.16032e-06 0.00973738 1.7142e-07 272.779 
-0.37 -0.83 -0.31902 0.268314 0.00974252 0.00971238 8.40578e-06 0.00973286 1.71393e-07 272.695 
-0.35 -0.83 -0.421236 0.145702 0.00975046 0.00971685 1.41065e-05 0.0097324 1.71371e-07 272.718 
-0.33 -0.83 -0.189329 0.247382 0.00975251 0.00971478 1.6414e-05 0.00973158 1.71178e-07 273.003 
-0.31 -0.83 -0.163932 -0.208937 0.0097486 0.00969843 1.47005e-05 0.00973347 1.71371e-07 272.748 
-0.29 -0.83 -0.525545 0.158514 0.00976441 0.00971583 1.53907e-05 0.0097497 1.7136e-07 273.22 
-0.27 -0.83 -0.562983 0.271017 0.00976628 0.00972374 5.73428e-06 0.00975206 1.71329e-07 273.336 
-0.27 -0.67 -0.458362 0.585898 0.00975912 0.00971775 1.547e-05 0.00974755 1.7151e-07 272.92 
-0.25 -0.67 -0.303995 0.677942 0.00976843 0.00971979 5.73263e-07 0.00975774 1.71499e-07 273.223 
-0.25 -0.81 -0.527335 0.237102 0.00976553 0.00971169 4.39456e-06 0.00974522 1.71453e-07 272.946 
-0.25 -0.79 -0.497711 0.221249 0.00976531 0.00972935 1.7485e-05 0.00974801 1.71414e-07 273.086 
-0.35 -0.55 -0.200647 0.757141 0.00978765 0.00970804 7.78818e-06 0.00975111 1.71599e-07 272.879 
-0.39 -0.53 -0.0712994 1.06794 0.00978191 0.00969089 2.50781e-06 0.009749 1.71598e-07 272.822 
-0.37 -0.57 -0.325784 0.692259 0.00978583 0.00969638 4.13517e-06 0.00975207 1.71624e-07 272.866 
-0.41 -0.55 -0.0229651 0.89508 0.00976208 0.00970529 -2.82491e-06 0.00974041 1.71492e-07 272.749 
-0.45 -0.53 0.0472883 0.622394 0.00977267 0.0096975 -6.20297e-06 0.00973081 1.71447e-07 272.553 
-0.35 -0.57 -0.216314 0.643414 0.00978245 0.00970043 2.07834e-05 0.00974552 1.7152e-07 272.848 
-0.39 -0.55 -0.121262 0.952949 0.00976364 0.00969007 5.34151e-06 0.00974453 1.71398e-07 273.015 
-0.43 -0.53 -0.132606 0.659456 0.00977775 0.00969787 3.88217e-06 0.00973629 1.71607e-07 272.451 
-0.47 -0.51 -0.215892 0.646551 0.00976615 0.00969117 -3.85028e-06 0.00972724 1.71478e-07 272.403 
-0.37 -0.55 -0.17277 0.689691 0.00975986 0.00967819 4.28485e-06 0.00973248 1.71121e-07 273.118 
-0.41 -0.53 -0.18643 0.825691 0.00978328 0.00970725 -2.14037e-06 0.00974985 1.71629e-07 272.796 
-0.45 -0.51 -0.356222 0.737788 0.00976465 0.00969423 4.33069e-06 0.00973309 1.71501e-07 272.531 
-0.37 -0.53 -0.157638 0.835471 0.00978549 0.00968748 -1.21355e-06 0.00973946 1.71459e-07 272.775 
-0.41 -0.51 -0.302575 0.824767 0.00975702 0.00970289 4.87948e-07 0.0097295 1.71372e-07 272.634 
-0.35 -0.53 -0.399103 0.867257 0.00976991 0.00969541 8.86443e-06 0.00973206 1.71414e-07 272.64 
-0.39 -0.51 -0.408349 0.846776 0.00976078 0.00968869 8.38373e-07 0.00972727 1.71398e-07 272.531 
-0.37 -0.51 -0.309271 1.01248 0.00975571 0.00967872 9.47981e-06 0.00972051 1.71239e-07 272.594 
-0.35 -0.51 -0.395652 0.852971 0.00975453 0.00969375 1.16071e-05 0.00972129 1.71263e-07 272.578 
-0.49 -0.65 0.125968 0.297825 0.00976886 0.00972003 9.82064e-06 0.0097498 1.71546e-07 272.926 
-0.47 -0.65 -0.16205 0.468689 0.00976608 0.00972139 5.61306e-06 0.00975081 1.71647e-07 272.794 
-0.45 -0.65 -0.0970115 0.594318 0.00976035 0.00972601 3.90554e-06 0.00975071 1.71836e-07 272.491 
-0.49 -0.63 -0.125624 0.338445 0.0097518 0.00972116 2.15424e-06 0.0097472 1.71809e-07 272.436 
-0.43 -0.65 0.101163 0.74275 0.00974538 0.00969639 3.50747e-06 0.00972787 1.71362e-07 272.604 
-0.47 -0.63 -0.102993 0.602232 0.00975661 0.00971906 -1.75691e-06 0.00974488 1.71765e-07 272.441 
-0.41 -0.65 -0.0171494 0.348063 0.00976284 0.00970551 1.17757e-05 0.00973996 1.71497e-07 272.728 
-0.45 -0.63 -0.166036 0.559642 0.00976597 0.00971978 9.0884e-06 0.00974596 1.71664e-07 272.631 
-0.49 -0.61 -0.0382147 0.514191 0.00976944 0.00972008 -1.05684e-05 0.00975166 1.71768e-07 272.626 
-0.39 -0.65 -0.119161 0.262123 0.00976122 0.00971499 6.48419e-06 0.00974269 1.71378e-07 272.994 
-0.43 -0.63 -0.328476 0.642924 0.00977599 0.00970888 6.91152e-06 0.00974003 1.71311e-07 273.028 
-0.47 -0.61 -0.29403 0.65399 0.00976729 0.00971652 3.8609e-06 0.00974735 1.71692e-07 272.626 
-0.37 -0.65 -0.56044 0.557155 0.00975788 0.00969282 -2.76841e-07 0.00972913 1.71227e-07 272.855 
-0.41 -0.63 -0.347804 0.43918 0.00976494 0.00969526 4.02064e-06 0.00973208 1.71335e-07 272.766 
-0.45 -0.61 -0.306709 0.706227 0.00976392 0.00971601 -7.65133e-06 0.00974359 1.71474e-07 272.868 
-0.49 -0.59 -0.0812597 0.580765 0.00977203 0.00970203 -8.71393e-06 0.00974445 1.71555e-07 272.763 
-0.35 -0.65 -0.576941 0.517309 0.00976943 0.0097302 5.93689e-06 0.00975167 1.71689e-07 272.751 
-0.39 -0.63 -0.439535 0.573761 0.00977562 0.00971717 9.05207e-06 0.00974144 1.71498e-07 272.769 
-0.43 -0.61 -0.118118 0.761835 0.00976941 0.00970104 6.24466e-06 0.00973719 1.71213e-07 273.104 
-0.47 -0.59 -0.00886541 0.784074 0.00977931 0.00971944 -5.9711e-06 0.00975236 1.71746e-07 272.681 
-0.37 -0.63 -0.423688 0.626539 0.00976248 0.0096952 6.99518e-06 0.00973212 1.71451e-07 272.582 
-0.41 -0.61 -0.348296 0.446374 0.00977581 0.0097147 6.34596e-06 0.00974189 1.71296e-07 273.103 
-0.45 -0.59 0.0867163 0.382204 0.0097825 0.00971169 -1.20345e-06 0.00975568 1.71682e-07 272.874 
-0.49 -0.57 -0.049385 0.505303 0.00977741 0.00969796 -1.30507e-05 0.0097354 1.7136e-07 272.819 
-0.35 -0.63 -0.46323 0.483665 0.00975813 0.0097176 7.20021e-06 0.00973768 1.71433e-07 272.766 
-0.39 -0.61 -0.329594 0.489618 0.00977894 0.00969856 8.94691e-07 0.00973659 1.71225e-07 273.068 
-0.43 -0.59 0.058851 0.85859 0.00977789 0.00970192 2.02039e-06 0.00974815 1.71709e-07 272.622 
-0.47 -0.57 -0.0120307 0.623013 0.00977546 0.00972194 -7.59765e-06 0.00974582 1.71661e-07 272.632 
-0.37 -0.61 -0.313338 0.596694 0.00978363 0.0097054 1.0255e-05 0.0097452 1.71438e-07 272.969 
-0.41 -0.59 0.123319 0.54289 0.00978133 0.0097109 -4.12144e-06 0.00974569 1.7149e-07 272.901 
-0.45 -0.57 0.0809297 0.507607 0.00977502 0.00969835 5.76747e-07 0.0097393 1.71376e-07 272.903 
-0.49 -0.55 0.00667215 0.529957 0.00976305 0.00970085 -1.2435e-05 0.00973586 1.71443e-07 272.701 
-0.35 -0.61 -0.202222 0.522599 0.00977965 0.00970469 7.34293e-06 0.00973827 1.7135e-07 272.916 
-0.39 -0.59 -0.0853824 0.680485 0.00977547 0.00968231 5.36653e-06 0.00973405 1.7127e-07 272.925 
-0.43 -0.57 0.109032 0.73578 0.00978019 0.0097046 -5.01383e-06 0.0097486 1.71414e-07 273.102 
-0.47 -0.55 -0.000319802 0.726415 0.00977567 0.00970347 -7.46311e-06 0.00974677 1.71731e-07 272.548 
-0.33 -0.61 -0.551356 0.645428 0.00977971 0.00970225 1.9591e-05 0.00974862 1.71427e-07 273.082 
-0.37 -0.59 -0.140607 0.479718 0.00977409 0.00971545 1.40244e-05 0.00974367 1.71464e-07 272.885 
-0.41 -0.57 0.00706686 0.763206 0.00978164 0.00970546 1.29651e-05 0.00974572 1.71553e-07 272.801 
-0.45 -0.55 -0.16346 0.41787 0.00977459 0.00970219 -2.19761e-06 0.00973345 1.71436e-07 272.643 
-0.49 -0.53 0.00896954 0.581041 0.00977564 0.00970003 -5.70236e-06 0.00974097 1.71582e-07 272.622 
-0.35 -0.59 -0.420904 0.749842 0.00976938 0.00969553 1.25898e-05 0.00973088 1.71469e-07 272.519 
-0.39 -0.57 -0.264433 0.824784 0.00978205 0.00968839 -9.29759e-07 0.0097452 1.71432e-07 272.979 
-0.43 -0.55 -0.0449322 0.669942 0.00976812 0.00969842 5.79586e-06 0.00974189 1.71462e-07 272.839 
-0.47 -0.53 0.00915435 0.595412 0.00976985 0.00969538 -5.66813e-06 0.00973386 1.71526e-07 272.512 
-0.29 -0.57 -0.513386 0.537004 0.00977036 0.00969721 2.16917e-05 0.00973777 1.7134e-07 272.918 
-0.33 -0.55 -0.540529 0.976103 0.00979748 0.00971437 8.47494e-06 0.00974933 1.71508e-07 272.974 
-0.29 -0.61 -0.363279 0.686147 0.0097615 0.00970742 1.80313e-06 0.00973666 1.71481e-07 272.661 
-0.33 -0.59 -0.351986 0.903651 0.00977074 0.00970262 1.26299e-05 0.009738 1.71296e-07 272.994 
-0.27 -0.61 -0.415074 0.459745 0.00976616 0.0097052 1.68371e-05 0.00973655 1.71397e-07 272.792 
-0.31 -0.59 -0.636288 0.854259 0.0097749 0.0097175 1.27271e-05 0.00974582 1.71491e-07 272.903 
-0.29 -0.59 -0.368029 0.341022 0.00978527 0.00970697 1.29407e-05 0.00974911 1.71525e-07 272.94 
-0.33 -0.57 -0.259444 1.00672 0.0097752 0.00970618 9.23454e-06 0.00973685 1.71352e-07 272.873 
-0.27 -0.59 -0.263208 0.724216 0.00977101 0.00968948 1.68971e-05 0.0097316 1.71244e-07 272.897 
-0.31 -0.57 -0.199494 0.794219 0.00977943 0.00971397 2.25409e-06 0.00974711 1.71573e-07 272.808 
-0.27 -0.57 -0.719091 0.715943 0.00976493 0.00969561 2.84896e-05 0.00974564 1.71574e-07 272.765 
-0.31 -0.55 -0.265679 1.004 0.00977697 0.0096997 2.5332e-05 0.0097431 1.71458e-07 272.879 
-0.29 -0.55 -0.415329 0.678589 0.00976157 0.0096819 2.57959e-05 0.00972637 1.71174e-07 272.862 
-0.33 -0.53 -0.209135 1.09265 0.00976382 0.00969739 1.66155e-05 0.00973004 1.71239e-07 272.861 
-0.27 -0.55 -0.403507 0.692528 0.00976138 0.00970192 1.92188e-05 0.00972925 1.71335e-07 272.687 
-0.31 -0.53 -0.319445 0.78995 0.00976427 0.00969933 2.9771e-05 0.00973908 1.71518e-07 272.67 
-0.29 -0.53 -0.316407 0.77218 0.00978505 0.00968947 2.68904e-05 0.00974631 1.71481e-07 272.932 
-0.33 -0.51 -0.340659 0.883093 0.00974764 0.00968222 2.25077e-05 0.00971859 1.71037e-07 272.863 
-0.27 -0.53 -0.534009 0.892984 0.00977598 0.00970263 2.67033e-05 0.00973935 1.71327e-07 272.982 
-0.31 -0.51 -0.127687 0.840781 0.00974877 0.00969806 2.04722e-05 0.00972198 1.71149e-07 272.779 
-0.29 -0.51 -0.162184 0.924216 0.00974325 0.00968838 2.23143e-05 0.00972825 1.71138e-07 272.973 
-0.27 -0.51 -0.281171 1.19609 0.00975895 0.00970272 2.76926e-05 0.00973657 1.71188e-07 273.126 
-0.33 -0.65 -0.384399 0.568272 0.0097782 0.00970405 1.39914e-05 0.00975225 1.71523e-07 273.031 
-0.31 -0.65 -0.25105 0.81707 0.0097743 0.00970487 9.8133e-06 0.00974733 1.71522e-07 272.895 
-0.29 -0.65 -0.452076 0.662335 0.00975766 0.00969033 1.00342e-05 0.00972956 1.71252e-07 272.828 
-0.33 -0.63 -0.379664 0.596375 0.00975068 0.00970874 1.02253e-05 0.00974089 1.71582e-07 272.619 
-0.27 -0.65 -0.435855 0.49852 0.0097735 0.00972914 6.58572e-06 0.00975334 1.71668e-07 272.832 
-0.31 -0.63 -0.681679 0.775919 0.0097457 0.00969414 1.12739e-05 0.00972925 1.71192e-07 272.914 
-0.25 -0.65 -0.532044 0.516342 0.00976396 0.00971401 7.94666e-06 0.00974673 1.71673e-07 272.638 
-0.29 -0.63 -0.662607 0.501782 0.00976341 0.00971039 6.35907e-06 0.00974032 1.71565e-07 272.631 
-0.27 -0.63 -0.604645 0.585005 0.00975113 0.00972133 6.91029e-06 0.00974149 1.71597e-07 272.613 
-0.31 -0.61 -0.487618 0.805346 0.00977957 0.00971221 1.23507e-05 0.00975122 1.71609e-07 272.867 
-0.49 -0.67 0.0340813 0.417953 0.0097675 0.00971317 3.82796e-07 0.00974566 1.71409e-07 273.028 
-0.47 -0.67 0.0537983 0.195007 0.00976583 0.00972323 -3.39721e-06 0.00974052 1.71566e-07 272.634 
-0.45 -0.67 0.0812922 0.794885 0.00975858 0.00971735 1.77363e-06 0.00973926 1.71606e-07 272.536 