ITEM: TIMESTEP
959500
ITEM: NUMBER OF CELLS
5000
ITEM: BOX BOUNDS ss ss pp
-0.5 0.5
-1 1
-0.5 0.5
ITEM: CELLS xc yc f_U[*] f_V[*] f_Tau[1] f_Tau[2] f_Tau[3] f_Press[*] f_Mrho[*] f_Ttra[*] 
-0.49 -0.99 -0.0631917 0.125008 0.00975771 0.00972492 1.40064e-05 0.00974448 1.71634e-07 272.637 
-0.47 -0.99 -0.140736 -0.0967848 0.00974168 0.00971069 1.06306e-05 0.0097324 1.71409e-07 272.656 
-0.45 -0.99 -0.141282 0.0189606 0.00974226 0.00972625 3.88959e-06 0.0097404 1.71406e-07 272.886 
-0.49 -0.97 -0.0382025 0.118375 0.00973919 0.00971547 1.3762e-05 0.00972978 1.7132e-07 272.726 
-0.43 -0.99 -0.184055 -0.0307497 0.00973475 0.00972686 6.04366e-06 0.00973905 1.71321e-07 272.983 
-0.47 -0.97 -0.0828027 0.0713964 0.0097448 0.00971618 1.37626e-05 0.00973398 1.71348e-07 272.798 
-0.41 -0.99 -0.0163952 -0.0453391 0.00973013 0.00972118 4.3367e-06 0.00972954 1.7126e-07 272.814 
-0.45 -0.97 -0.11963 -0.022333 0.00974559 0.00972996 6.45406e-06 0.00974359 1.7142e-07 272.952 
-0.49 -0.95 0.0590912 0.0771559 0.00973365 0.00970271 2.96344e-06 0.00972527 1.71118e-07 272.92 
-0.39 -0.99 -0.0697883 0.0558311 0.00973544 0.0097247 -2.89429e-06 0.00972739 1.70968e-07 273.22 
-0.43 -0.97 0.0915271 0.00953663 0.0097473 0.0097274 4.76922e-06 0.00974211 1.71368e-07 272.994 
-0.47 -0.95 0.108757 0.163029 0.00975013 0.00972238 2.2445e-06 0.00973372 1.71266e-07 272.921 
-0.37 -0.99 -0.135578 0.00338603 0.00973553 0.00972931 9.91298e-06 0.00973487 1.71296e-07 272.906 
-0.41 -0.97 -0.113258 -0.114604 0.00974242 0.00972301 7.54228e-06 0.00973369 1.71238e-07 272.965 
-0.45 -0.95 0.166735 -0.207817 0.00975368 0.00973578 7.76519e-06 0.00974937 1.71502e-07 272.984 
-0.49 -0.93 0.00332853 -0.00982646 0.00976429 0.0097149 5.79564e-07 0.00974334 1.71423e-07 272.941 
-0.35 -0.99 0.00383061 -0.124933 0.00972529 0.00970536 1.14926e-05 0.00971381 1.7085e-07 273.026 
-0.39 -0.97 0.0306683 0.0636812 0.00973198 0.00972156 8.66864e-06 0.00973419 1.71291e-07 272.895 
-0.43 -0.95 0.116714 0.0178963 0.00975498 0.00971996 1.21436e-05 0.00974178 1.71436e-07 272.876 
-0.47 -0.93 0.0906199 0.000480543 0.00975653 0.0097166 2.18211e-07 0.00973686 1.71342e-07 272.889 
-0.33 -0.99 0.0716966 0.0210695 0.00973574 0.0097288 5.19899e-06 0.00973001 1.7119e-07 272.938 
-0.37 -0.97 0.0590229 -0.062397 0.00973249 0.00972701 3.35205e-06 0.00973558 1.71344e-07 272.85 
-0.41 -0.95 -0.0590926 0.106987 0.0097526 0.00972772 6.02405e-06 0.0097417 1.71443e-07 272.863 
-0.45 -0.93 0.0415381 0.113032 0.0097538 0.00972824 6.58255e-06 0.00974196 1.71472e-07 272.824 
-0.49 -0.91 0.0425334 0.0977997 0.00975777 0.00972013 1.06444e-05 0.00973886 1.71192e-07 273.184 
-0.35 -0.97 -0.026522 -0.0591148 0.00973604 0.00971234 6.38459e-06 0.00972494 1.71105e-07 272.932 
-0.39 -0.95 -0.194921 -0.0222109 0.00975104 0.00972563 6.63808e-06 0.00974014 1.71526e-07 272.689 
-0.43 -0.93 -0.099246 0.0482758 0.00975355 0.00972025 6.3158e-06 0.00973127 1.71198e-07 272.962 
-0.47 -0.91 -0.266575 -0.0345179 0.00975422 0.00971503 3.24385e-06 0.00973503 1.71385e-07 272.769 
-0.33 -0.97 -0.112125 -0.0355572 0.00973828 0.00972405 4.23961e-06 0.00973703 1.71368e-07 272.852 
-0.37 -0.95 -0.153913 -0.0551426 0.009752 0.00971943 1.11994e-05 0.00973924 1.71321e-07 272.989 
-0.41 -0.93 -0.0556411 0.107426 0.00975499 0.00972981 1.49248e-05 0.00973287 1.71259e-07 272.909 
-0.45 -0.91 -0.101829 0.0666499 0.00976088 0.00972143 5.3578e-06 0.00974377 1.71467e-07 272.883 
-0.49 -0.89 -0.0600057 0.111981 0.00976033 0.00972228 6.31594e-06 0.00974366 1.71391e-07 273.001 
-0.35 -0.95 -0.142215 -0.0685119 0.00975416 0.00972303 3.65296e-06 0.00973956 1.71418e-07 272.844 
-0.39 -0.93 -0.0276781 -0.0839473 0.00975255 0.00972806 6.99237e-06 0.00973969 1.7154e-07 272.653 
-0.43 -0.91 -0.191494 0.05234 0.00975542 0.00972658 9.58023e-06 0.00973791 1.71182e-07 273.173 
-0.47 -0.89 0.0823951 0.137326 0.00975404 0.00971934 8.79898e-06 0.00973852 1.71422e-07 272.808 
-0.37 -0.93 -0.0400832 0.0214349 0.00975379 0.00972077 1.54314e-06 0.00974208 1.71334e-07 273.047 
-0.41 -0.91 -0.0792566 0.0949261 0.00976415 0.00972238 3.7447e-06 0.00974085 1.71371e-07 272.954 
-0.45 -0.89 -0.245552 0.16493 0.00975057 0.00971592 -1.90699e-06 0.00973901 1.71323e-07 272.979 
-0.49 -0.87 -0.0628811 0.167718 0.00974054 0.009714 -3.33323e-07 0.00972543 1.71246e-07 272.722 
-0.35 -0.93 -0.323314 0.0250925 0.00975756 0.00972387 4.45295e-06 0.00973587 1.71415e-07 272.744 
-0.39 -0.91 -0.130502 -0.0204283 0.00976988 0.00973441 1.36183e-05 0.00975467 1.7169e-07 272.834 
-0.43 -0.89 -0.229288 -0.023954 0.00976457 0.0097317 1.2922e-06 0.00975001 1.71434e-07 273.11 
-0.47 -0.87 0.0641096 0.162816 0.00975306 0.00972195 3.04318e-06 0.00973405 1.71344e-07 272.807 
-0.37 -0.91 -0.247697 0.165927 0.00975509 0.00972774 6.24751e-06 0.00974153 1.71653e-07 272.525 
-0.41 -0.89 -0.115108 0.0581672 0.00975946 0.00971628 2.35069e-06 0.00974127 1.7148e-07 272.793 
-0.45 -0.87 -0.0566585 0.213859 0.00975928 0.0097184 4.47153e-06 0.00974647 1.71428e-07 273.021 
-0.49 -0.85 -0.000428328 0.165664 0.00975349 0.00971768 -1.04121e-06 0.00973354 1.71294e-07 272.873 
-0.35 -0.91 -0.145458 0.128557 0.00974821 0.0097194 3.36502e-06 0.00973441 1.71355e-07 272.8 
-0.39 -0.89 -0.141397 0.151993 0.00975667 0.00972206 1.23335e-05 0.00974475 1.71514e-07 272.835 
-0.43 -0.87 -0.0477127 -0.0293796 0.00974181 0.00972955 5.03428e-06 0.00974255 1.71424e-07 272.917 
-0.47 -0.85 -0.157713 0.271661 0.009751 0.00971898 1.63844e-06 0.00973895 1.71368e-07 272.905 
-0.33 -0.91 -0.1927 -0.141626 0.00974866 0.00971386 1.24305e-05 0.00973319 1.71383e-07 272.721 
-0.37 -0.89 -0.232119 0.0771975 0.00976637 0.00974315 1.71565e-05 0.00975937 1.71641e-07 273.043 
-0.41 -0.87 -0.213901 0.134675 0.00974692 0.00972029 6.1735e-06 0.00973593 1.71429e-07 272.724 
-0.45 -0.85 -0.0743203 0.161747 0.0097493 0.00971399 6.28911e-06 0.00973769 1.71348e-07 272.902 
-0.35 -0.89 -0.28595 0.176125 0.00976215 0.00971421 1.21724e-05 0.00973055 1.71272e-07 272.823 
-0.39 -0.87 -0.206564 0.07995 0.00975528 0.0097174 2.65067e-06 0.00973868 1.71509e-07 272.674 
-0.43 -0.85 -0.140635 0.0961256 0.0097634 0.00973298 2.16256e-06 0.00974567 1.71573e-07 272.767 
-0.37 -0.87 -0.227815 0.203839 0.00976595 0.009735 9.59529e-06 0.00975015 1.71556e-07 272.92 
-0.41 -0.85 -0.153118 0.107352 0.00975976 0.00971716 4.96071e-06 0.00974288 1.71574e-07 272.688 
-0.35 -0.87 -0.174034 0.111935 0.0097683 0.00971867 1.14153e-05 0.00974061 1.71334e-07 273.006 
-0.39 -0.85 -0.276711 0.312891 0.00976169 0.00972338 -2.37798e-06 0.00974702 1.71529e-07 272.875 
-0.33 -0.87 -0.378131 0.0476389 0.00976936 0.00972415 1.09889e-05 0.00974548 1.71398e-07 273.04 
-0.37 -0.85 -0.362613 0.0150977 0.00976026 0.00971948 4.49777e-06 0.00974188 1.71398e-07 272.94 
-0.35 -0.85 -0.284658 0.132763 0.00976168 0.00972189 1.28016e-05 0.00974016 1.71188e-07 273.227 
-0.33 -0.85 -0.396098 0.400724 0.00975981 0.00972542 1.06757e-05 0.00973805 1.7132e-07 272.958 
-0.31 -0.99 0.119811 -0.0426648 0.00972821 0.00970949 1.45491e-05 0.00972032 1.71172e-07 272.695 
-0.29 -0.99 -0.00350169 0.203762 0.00972977 0.00971995 1.26385e-05 0.00972785 1.71227e-07 272.82 
-0.27 -0.99 -0.0958439 -0.0885771 0.00974627 0.00973312 8.55739e-06 0.00973574 1.71119e-07 273.213 
-0.31 -0.97 -0.314335 -0.0734844 0.00974727 0.00971483 6.4016e-06 0.00973417 1.71334e-07 272.825 
-0.29 -0.97 -0.254023 0.242828 0.00975999 0.00972202 8.79253e-06 0.00974715 1.71604e-07 272.76 
-0.33 -0.95 -0.0858555 0.109499 0.00975137 0.00971873 6.92269e-06 0.00973453 1.71265e-07 272.946 
-0.27 -0.97 -0.146076 -0.0313112 0.00975009 0.00972555 1.16164e-05 0.00974002 1.71451e-07 272.803 
-0.31 -0.95 -0.138419 0.142854 0.00975031 0.00971684 3.43396e-06 0.00973346 1.71328e-07 272.816 
-0.29 -0.95 -0.086552 -0.012507 0.00974444 0.00970903 8.51366e-06 0.0097234 1.71241e-07 272.672 
-0.33 -0.93 -0.310309 0.0776123 0.00976057 0.00971689 3.14149e-06 0.00973626 1.71323e-07 272.902 
-0.27 -0.95 -0.234516 0.0951248 0.00974784 0.00973224 8.26837e-06 0.00973958 1.71419e-07 272.842 
-0.31 -0.93 -0.0870326 0.0346952 0.00975759 0.00971399 9.42853e-06 0.00973559 1.71518e-07 272.574 
-0.29 -0.93 -0.241252 0.120309 0.00975789 0.00970953 8.36892e-06 0.00973368 1.71453e-07 272.624 
-0.27 -0.93 -0.127984 0.0928202 0.00976296 0.00972918 8.85929e-06 0.00974887 1.71644e-07 272.745 
-0.31 -0.91 -0.227532 0.206667 0.00975399 0.00971307 5.98672e-06 0.00973689 1.71418e-07 272.769 
-0.29 -0.91 -0.294465 0.0446857 0.00975395 0.00971101 5.68902e-08 0.00973129 1.71352e-07 272.716 
-0.33 -0.89 -0.285044 -0.117521 0.00975487 0.00972149 7.04767e-06 0.00973747 1.71295e-07 272.98 
-0.27 -0.91 -0.177571 0.0378827 0.00975613 0.00972365 5.96589e-06 0.00973249 1.71482e-07 272.544 
-0.31 -0.89 -0.268481 0.16101 0.00975907 0.00971369 2.87681e-06 0.00974512 1.71538e-07 272.809 
-0.29 -0.89 -0.162272 -0.0436753 0.00975629 0.00971049 4.50816e-06 0.00973883 1.71299e-07 273.012 
-0.27 -0.89 -0.286107 0.171843 0.00975047 0.00971755 1.07663e-05 0.00974199 1.71453e-07 272.856 
-0.31 -0.87 -0.471913 0.0800229 0.00975769 0.00971784 5.46745e-06 0.00973563 1.71405e-07 272.754 
-0.29 -0.87 -0.380768 -0.00351808 0.00974882 0.00970589 9.4208e-06 0.00973273 1.71224e-07 272.961 
-0.27 -0.87 -0.431217 0.234934 0.0097484 0.00971719 1.09677e-05 0.00973958 1.71454e-07 272.787 
-0.31 -0.85 -0.426982 -0.132176 0.00975887 0.00971776 2.00451e-05 0.00974002 1.71459e-07 272.791 
-0.29 -0.85 -0.337893 0.0500216 0.00975338 0.00970655 1.19712e-05 0.00974266 1.71447e-07 272.884 
-0.27 -0.85 -0.416613 0.231718 0.00975001 0.00971258 8.86743e-06 0.00973698 1.71186e-07 273.141 
-0.25 -0.99 -0.235326 0.108936 0.00974677 0.00974044 1.44102e-05 0.00974416 1.71374e-07 273.042 
-0.25 -0.97 -0.0520477 0.204403 0.00975066 0.00973725 7.43341e-06 0.00974428 1.71596e-07 272.692 
-0.25 -0.95 -0.348446 0.174912 0.00974458 0.00973865 1.06239e-05 0.00974246 1.7149e-07 272.81 
-0.25 -0.93 -0.0405737 0.150139 0.00976061 0.0097377 1.59705e-05 0.00974575 1.71643e-07 272.659 
-0.25 -0.91 -0.295808 0.12193 0.00975846 0.00972693 1.28441e-05 0.00974421 1.71552e-07 272.76 
-0.25 -0.89 -0.396453 0.219491 0.00974923 0.00971997 1.12952e-05 0.00973611 1.71281e-07 272.965 
-0.25 -0.87 -0.449023 0.287799 0.00974494 0.00971269 1.75677e-05 0.00973641 1.71243e-07 273.034 
-0.25 -0.85 -0.37643 0.381512 0.00976017 0.00971807 9.45074e-06 0.00974669 1.71345e-07 273.159 
-0.25 -0.83 -0.453127 0.249207 0.00975268 0.00970995 3.52394e-06 0.00974368 1.71332e-07 273.096 
-0.33 -0.81 -0.108164 0.146182 0.00975884 0.00970998 1.15128e-05 0.00973227 1.71328e-07 272.783 
-0.31 -0.81 -0.231546 0.234002 0.00977391 0.00971978 1.47002e-05 0.00974854 1.71352e-07 273.199 
-0.29 -0.81 -0.289799 0.159227 0.0097774 0.00972172 7.69602e-06 0.0097523 1.71366e-07 273.284 
-0.27 -0.81 -0.421107 0.344951 0.00977701 0.0097239 1.03267e-05 0.00975818 1.71543e-07 273.166 
-0.31 -0.79 -0.32032 0.214212 0.00975872 0.00971614 4.53544e-06 0.00973872 1.71422e-07 272.813 
-0.29 -0.79 -0.39756 0.490707 0.0097637 0.00972174 5.8699e-06 0.00973953 1.71444e-07 272.802 
-0.33 -0.77 -0.396065 0.246082 0.00977209 0.00972137 1.28407e-05 0.00974873 1.71411e-07 273.112 
-0.27 -0.79 -0.531143 0.252013 0.00976549 0.00971351 1.48943e-05 0.00974161 1.71467e-07 272.823 
-0.31 -0.77 -0.325702 0.236784 0.00976059 0.0097069 1.02799e-05 0.00973569 1.71347e-07 272.847 
-0.29 -0.77 -0.341851 0.44213 0.00975545 0.00972193 9.44166e-06 0.00974108 1.71566e-07 272.651 
-0.27 -0.77 -0.336221 0.352883 0.00975314 0.00970699 8.03735e-06 0.00973412 1.71325e-07 272.838 
-0.31 -0.75 -0.215541 0.377898 0.00976052 0.00971668 8.6029e-06 0.00974761 1.7154e-07 272.875 
-0.29 -0.75 -0.52702 0.497464 0.00976001 0.00971735 1.46164e-05 0.00974469 1.71498e-07 272.859 
-0.27 -0.75 -0.564322 0.5722 0.00975861 0.00970866 1.57035e-05 0.00973418 1.71264e-07 272.937 
-0.49 -0.83 -0.0736706 0.259191 0.00975604 0.00972123 3.24163e-06 0.00973791 1.71472e-07 272.711 
-0.47 -0.83 -0.10134 0.234 0.00975627 0.00971451 3.15477e-06 0.0097383 1.71673e-07 272.403 
-0.45 -0.83 -0.105628 0.205602 0.00975362 0.00972413 -1.05529e-06 0.00974175 1.7152e-07 272.742 
-0.49 -0.81 0.0288118 0.281643 0.00975729 0.00972353 7.32798e-07 0.00974196 1.71434e-07 272.886 
-0.43 -0.83 -0.120431 0.118215 0.0097464 0.00971659 2.57155e-06 0.00973464 1.7147e-07 272.623 
-0.47 -0.81 -0.0356479 0.192272 0.00975693 0.00971648 1.85759e-06 0.0097436 1.7146e-07 272.889 
-0.45 -0.81 -0.0296039 0.239809 0.00976603 0.00972578 3.21568e-06 0.00974673 1.71652e-07 272.672 
-0.49 -0.79 -0.0283549 0.399804 0.00975834 0.00972193 2.43819e-06 0.00973971 1.71384e-07 272.901 
-0.43 -0.81 -0.109116 0.230633 0.00976968 0.00971417 -1.56147e-06 0.00974644 1.71761e-07 272.491 
-0.47 -0.79 -0.000417262 0.105789 0.00975798 0.0097176 -6.50578e-06 0.00974152 1.71408e-07 272.913 
-0.41 -0.81 -0.290502 0.287787 0.00976368 0.00972277 8.14678e-06 0.00974933 1.71544e-07 272.916 
-0.45 -0.79 0.00212265 0.308257 0.00975785 0.00972545 -2.68103e-06 0.00974081 1.71472e-07 272.793 
-0.49 -0.77 0.0684747 0.24913 0.00975507 0.00971896 4.06627e-06 0.00973787 1.71253e-07 273.058 
-0.39 -0.81 -0.304571 0.175316 0.00975455 0.00972094 1.42641e-05 0.00974486 1.71536e-07 272.804 
-0.43 -0.79 -0.280083 0.455086 0.00976196 0.00970916 3.45022e-06 0.00973808 1.71458e-07 272.737 
-0.47 -0.77 -0.00884048 0.323707 0.00975485 0.00972425 -3.02821e-06 0.00974052 1.71344e-07 272.988 
-0.37 -0.81 -0.0942803 0.213975 0.00975375 0.00971366 7.49472e-06 0.00973448 1.71482e-07 272.599 
-0.41 -0.79 -0.401717 0.373857 0.00976458 0.00971901 8.40966e-06 0.00974761 1.71679e-07 272.654 
-0.45 -0.77 -0.327242 0.495776 0.00975648 0.00972269 -2.34178e-06 0.00974117 1.71475e-07 272.797 
-0.35 -0.81 -0.0419917 0.251936 0.00974498 0.00971405 1.80884e-06 0.00973234 1.71325e-07 272.788 
-0.39 -0.79 -0.299359 0.0798306 0.00976885 0.00972124 7.38856e-06 0.00974836 1.71733e-07 272.589 
-0.43 -0.77 -0.328729 0.521123 0.00974957 0.00970575 9.12582e-07 0.0097276 1.71378e-07 272.571 
-0.37 -0.79 -0.368236 0.187256 0.00977228 0.00971546 8.28164e-06 0.00974826 1.71562e-07 272.857 
-0.41 -0.77 -0.330562 0.228092 0.00975393 0.00971308 5.55109e-06 0.00973679 1.71463e-07 272.695 
-0.35 -0.79 -0.317612 0.146372 0.00977036 0.00971811 1.49957e-05 0.00974665 1.71613e-07 272.731 
-0.39 -0.77 -0.14683 0.148735 0.00975133 0.00972182 8.8463e-06 0.0097462 1.71588e-07 272.758 
-0.43 -0.75 0.0630443 0.303751 0.00976484 0.00971422 -3.77478e-06 0.00974237 1.71495e-07 272.799 
-0.33 -0.79 -0.234111 0.226264 0.0097562 0.00970955 2.16878e-06 0.00972972 1.71365e-07 272.652 
-0.37 -0.77 -0.133995 0.244734 0.00975767 0.00971226 4.71336e-06 0.00973971 1.71477e-07 272.754 
-0.41 -0.75 0.0263526 0.421309 0.00976501 0.00970183 3.91226e-06 0.00974192 1.71626e-07 272.579 
-0.35 -0.77 -0.379551 0.250778 0.00977014 0.00972034 6.46312e-06 0.00974715 1.71385e-07 273.108 
-0.39 -0.75 -0.270487 0.151543 0.00977132 0.00972353 6.02915e-06 0.00975014 1.71595e-07 272.857 
-0.49 -0.75 -0.053347 0.243242 0.00975285 0.00972358 3.52967e-06 0.00974067 1.71273e-07 273.106 
-0.47 -0.75 -0.0869082 0.438707 0.00975503 0.00973261 1.02434e-06 0.00973992 1.71291e-07 273.056 
-0.45 -0.75 -0.0849895 0.643197 0.00975315 0.00970768 -4.58802e-06 0.00972871 1.71335e-07 272.671 
-0.49 -0.73 -0.0554899 0.432254 0.00977212 0.00972208 4.16256e-06 0.00975 1.71445e-07 273.093 
-0.47 -0.73 -0.204494 0.420174 0.00977115 0.00974201 3.00504e-06 0.00975414 1.71455e-07 273.193 
-0.45 -0.73 -0.156971 0.390241 0.00976831 0.00971301 -8.1187e-06 0.00974094 1.71507e-07 272.739 
-0.49 -0.71 -0.0632946 0.539809 0.00977788 0.00972228 2.54403e-07 0.00974598 1.71528e-07 272.848 
-0.43 -0.73 -0.0598217 0.37721 0.00975585 0.0097065 5.0328e-07 0.0097362 1.71428e-07 272.732 
-0.47 -0.71 -0.103008 0.536245 0.00977884 0.00973805 4.50669e-07 0.0097575 1.71667e-07 272.949 
-0.37 -0.75 -0.232042 0.184642 0.00975968 0.00971576 9.20394e-06 0.00974142 1.71531e-07 272.715 
-0.41 -0.73 -0.0227995 0.419831 0.0097579 0.00969927 -2.05267e-06 0.00973747 1.71598e-07 272.499 
-0.45 -0.71 0.0994888 0.133472 0.00977145 0.00972037 7.22384e-06 0.00974742 1.71598e-07 272.777 
-0.49 -0.69 0.0228357 0.554665 0.00977717 0.00971684 -6.51872e-06 0.00974581 1.71543e-07 272.82 
-0.35 -0.75 -0.0860906 0.271747 0.00975273 0.00971341 7.66064e-06 0.00973757 1.71418e-07 272.788 
-0.39 -0.73 -0.0194768 0.221721 0.00976066 0.00971175 9.65865e-06 0.00974111 1.7139e-07 272.931 
-0.43 -0.71 -0.0571065 0.415568 0.00976855 0.00970862 2.33092e-06 0.00974343 1.7157e-07 272.71 
-0.47 -0.69 0.136464 0.39159 0.00977952 0.00972754 4.27333e-06 0.00975163 1.71535e-07 272.995 
-0.37 -0.73 -0.249584 0.213629 0.0097702 0.00972319 8.74829e-06 0.0097505 1.71586e-07 272.882 
-0.41 -0.71 -0.0155448 0.497259 0.00976838 0.00969172 -2.3118e-07 0.00973511 1.71626e-07 272.388 
-0.45 -0.69 -0.0666649 0.315159 0.0097882 0.00972271 9.86349e-06 0.00975905 1.71785e-07 272.806 
-0.35 -0.73 -0.485249 0.425559 0.0097677 0.00971205 9.26482e-06 0.00974604 1.71534e-07 272.84 
-0.39 -0.71 -0.169614 0.232899 0.00977172 0.00971528 -2.49643e-06 0.00974261 1.71574e-07 272.68 
-0.43 -0.69 -0.182403 0.529804 0.00978692 0.00971615 6.55048e-06 0.00975944 1.71912e-07 272.615 
-0.33 -0.73 -0.439478 0.128288 0.00976853 0.00970745 1.29012e-05 0.00974046 1.71562e-07 272.64 
-0.37 -0.71 -0.0835138 0.34991 0.00977223 0.00971595 1.20131e-05 0.00974874 1.71616e-07 272.785 
-0.41 -0.69 -0.155099 0.311977 0.00977814 0.00970119 -4.71516e-07 0.00974103 1.71674e-07 272.477 
-0.35 -0.71 -0.256836 0.560304 0.00976886 0.00970564 6.92325e-06 0.00974913 1.71611e-07 272.804 
-0.39 -0.69 -0.0594306 0.397455 0.00976482 0.00970374 7.40136e-06 0.00973435 1.71462e-07 272.628 
-0.37 -0.69 -0.313282 0.41659 0.00976321 0.00970937 8.13893e-06 0.00974104 1.71427e-07 272.871 
-0.35 -0.69 -0.316057 0.644143 0.00976721 0.0097058 1.20722e-05 0.00973982 1.71394e-07 272.889 
-0.35 -0.67 -0.211333 0.55602 0.00977355 0.0097181 8.463e-06 0.00974523 1.71491e-07 272.886 
-0.33 -0.67 -0.246426 0.566367 0.00976016 0.00970203 4.90295e-06 0.00974367 1.71557e-07 272.738 
-0.33 -0.75 -0.111707 0.204508 0.0097536 0.00971264 1.01772e-05 0.00973711 1.71369e-07 272.852 
-0.31 -0.73 -0.455673 0.513426 0.00976745 0.00972346 1.09805e-05 0.00974719 1.71535e-07 272.871 
-0.29 -0.73 -0.290203 0.632257 0.00976865 0.00970478 1.10829e-05 0.0097445 1.71399e-07 273.012 
-0.33 -0.71 -0.526004 0.154253 0.00976598 0.009712 1.51793e-05 0.00974604 1.71556e-07 272.806 
-0.27 -0.73 -0.481392 0.56854 0.00976784 0.00971876 1.65158e-05 0.00975192 1.7144e-07 273.154 
-0.31 -0.71 -0.372241 0.3756 0.00976601 0.00972228 1.14549e-05 0.00975143 1.71626e-07 272.845 
-0.29 -0.71 -0.435164 0.584682 0.00976258 0.00970165 1.40307e-05 0.00974056 1.71279e-07 273.093 
-0.33 -0.69 -0.326261 0.31581 0.00978006 0.00970887 1.77405e-06 0.00975118 1.71768e-07 272.613 
-0.27 -0.71 -0.381957 0.613794 0.00976758 0.0097112 1.11374e-05 0.00974003 1.71218e-07 273.175 
-0.31 -0.69 -0.524727 0.375392 0.00978399 0.00972001 1.1633e-05 0.00976074 1.71734e-07 272.934 
-0.29 -0.69 -0.517202 0.663086 0.00978118 0.00970704 1.51757e-05 0.00974894 1.71523e-07 272.938 
-0.27 -0.69 -0.351333 0.407312 0.00978333 0.00971346 8.09835e-06 0.00975018 1.71292e-07 273.342 
-0.31 -0.67 -0.447132 0.47221 0.00975809 0.0097107 1.03139e-05 0.00974065 1.71501e-07 272.742 
-0.29 -0.67 -0.415426 0.43232 0.00976342 0.00971183 1.04193e-05 0.00974322 1.7136e-07 273.038 
-0.41 -0.83 -0.110089 0.240519 0.00975501 0.00972615 2.70903e-06 0.00974329 1.71534e-07 272.763 
-0.39 -0.83 -0.0921342 0.304268 0.00974924 0.009723 2.5877e-06 0.00973298 1.71392e-07 272.701 
-0.37 -0.83 -0.134464 0.232826 0.00974184 0.0097125 5.24426e-06 0.00972971 1.71227e-07 272.872 
-0.35 -0.83 -0.358337 0.0900799 0.00974901 0.00971826 1.36895e-05 0.00973065 1.71246e-07 272.867 
-0.33 -0.83 -0.233507 0.295963 0.00974966 0.00972063 1.43674e-05 0.00973434 1.71173e-07 273.088 
-0.31 -0.83 -0.144806 -0.189984 0.0097434 0.00970896 1.56423e-05 0.00973417 1.7137e-07 272.769 
-0.29 -0.83 -0.385132 0.200452 0.00975151 0.00972074 1.91939e-05 0.00974581 1.71283e-07 273.233 
-0.27 -0.83 -0.471486 0.326029 0.00975113 0.00971768 3.72311e-06 0.00974504 1.7127e-07 273.232 
-0.27 -0.67 -0.486673 0.509292 0.0097571 0.00971472 1.6788e-05 0.00974066 1.71305e-07 273.055 
-0.25 -0.67 -0.461002 0.52833 0.00976639 0.00972101 6.67468e-06 0.00975415 1.71479e-07 273.154 
-0.25 -0.81 -0.457646 0.293378 0.00976121 0.0097119 5.16506e-06 0.00974671 1.7149e-07 272.929 
-0.25 -0.79 -0.453152 0.212764 0.00976977 0.00972511 1.93523e-05 0.00974868 1.71446e-07 273.054 
-0.35 -0.55 -0.294423 0.713466 0.00978276 0.00971411 8.77327e-06 0.00974813 1.71497e-07 272.957 
-0.39 -0.53 -0.165441 0.949634 0.00977799 0.00969303 3.78042e-06 0.00974354 1.7144e-07 272.919 
-0.37 -0.57 -0.321783 0.671283 0.00977702 0.00970209 7.71294e-06 0.00974677 1.71373e-07 273.118 
-0.41 -0.55 -0.151803 0.965797 0.00976061 0.00970235 2.86216e-06 0.0097362 1.71491e-07 272.634 
-0.45 -0.53 0.00374762 0.69356 0.00976511 0.00969778 -1.52926e-07 0.0097323 1.7138e-07 272.7 
-0.35 -0.57 -0.267341 0.675502 0.00977947 0.00970725 2.05723e-05 0.00974313 1.71436e-07 272.915 
-0.39 -0.55 -0.196701 0.816213 0.00976208 0.00969251 4.3012e-06 0.00974312 1.71436e-07 272.915 
-0.43 -0.53 -0.126028 0.700144 0.00977287 0.00969518 5.76735e-06 0.00973649 1.71532e-07 272.576 
-0.47 -0.51 -0.0979449 0.748376 0.00976761 0.00969906 -2.91996e-06 0.00973374 1.71564e-07 272.449 
-0.37 -0.55 -0.273027 0.714239 0.00976369 0.00968784 5.92106e-06 0.00973472 1.71191e-07 273.069 
-0.41 -0.53 -0.132363 0.834865 0.00977962 0.00970352 -1.13156e-06 0.00974544 1.71532e-07 272.826 
-0.45 -0.51 -0.312694 0.750952 0.00976821 0.00969156 1.50178e-06 0.00973566 1.71514e-07 272.582 
-0.37 -0.53 -0.167309 0.773972 0.00977757 0.0096938 1.17098e-06 0.00973897 1.71433e-07 272.803 
-0.41 -0.51 -0.25383 0.82341 0.00976248 0.00969807 7.14114e-07 0.00973544 1.71446e-07 272.683 
-0.35 -0.53 -0.320219 0.759783 0.00976996 0.00970118 1.00717e-05 0.00973704 1.71423e-07 272.764 
-0.39 -0.51 -0.336204 0.935479 0.00976914 0.00969389 1.33479e-06 0.00973622 1.71517e-07 272.592 
-0.37 -0.51 -0.394453 0.902008 0.00976568 0.00968821 7.2866e-06 0.0097286 1.71259e-07 272.789 
-0.35 -0.51 -0.481524 0.817051 0.0097663 0.00969799 9.59608e-06 0.00972885 1.71352e-07 272.648 
-0.49 -0.65 0.117781 0.442269 0.00977113 0.00971514 1.07727e-05 0.00974449 1.71414e-07 272.988 
-0.47 -0.65 -0.0268711 0.453429 0.00977166 0.00972285 2.827e-06 0.00975157 1.71623e-07 272.853 
-0.45 -0.65 0.0194801 0.516205 0.00976737 0.00972197 5.15541e-06 0.0097479 1.7171e-07 272.612 
-0.49 -0.63 -0.0156721 0.387696 0.00976104 0.0097212 3.70865e-07 0.00974735 1.71731e-07 272.564 
-0.43 -0.65 0.0945333 0.675468 0.00976075 0.00969869 4.9337e-06 0.00973552 1.71468e-07 272.651 
-0.47 -0.63 0.0369101 0.531569 0.00976439 0.00971792 -6.78262e-07 0.00974581 1.71679e-07 272.603 
-0.41 -0.65 0.0447026 0.511045 0.00976596 0.00970633 1.1685e-05 0.00973981 1.71418e-07 272.851 
-0.45 -0.63 -0.00513785 0.488214 0.0097715 0.00971963 7.5321e-06 0.00975068 1.71664e-07 272.763 
-0.49 -0.61 -0.0532595 0.506372 0.00976451 0.00971752 -1.01663e-05 0.00974711 1.71565e-07 272.821 
-0.39 -0.65 -0.145011 0.364066 0.00976389 0.00971297 7.16052e-06 0.00974505 1.71396e-07 273.033 
-0.43 -0.63 -0.171096 0.671734 0.00977909 0.00970438 7.09334e-06 0.00973972 1.71346e-07 272.962 
-0.47 -0.61 -0.227092 0.503127 0.00976635 0.00971374 2.55473e-06 0.00974283 1.71508e-07 272.791 
-0.37 -0.65 -0.342866 0.631261 0.0097661 0.00969779 1.7143e-06 0.00973344 1.71267e-07 272.912 
-0.41 -0.63 -0.218194 0.64541 0.00977307 0.00969779 3.25085e-06 0.0097376 1.71455e-07 272.73 
-0.45 -0.61 -0.282851 0.646803 0.00976564 0.00971637 -9.10757e-06 0.00974118 1.71409e-07 272.903 
-0.49 -0.59 -0.0862202 0.526756 0.00977827 0.00970758 -6.91281e-06 0.00975109 1.71689e-07 272.736 
-0.35 -0.65 -0.381215 0.475686 0.0097757 0.00972048 1.04258e-05 0.00974797 1.71583e-07 272.817 
-0.39 -0.63 -0.202011 0.632238 0.00978292 0.00971705 9.92884e-06 0.00974935 1.71581e-07 272.859 
-0.43 -0.61 -0.113482 0.742887 0.00977744 0.00969987 5.14584e-06 0.00973985 1.71351e-07 272.957 
-0.47 -0.59 -0.00420574 0.626314 0.00978599 0.00972015 -8.89254e-06 0.00975709 1.71672e-07 272.93 
-0.37 -0.63 -0.341376 0.601097 0.00976718 0.0096988 9.86262e-06 0.00973459 1.71382e-07 272.762 
-0.41 -0.61 -0.250417 0.610651 0.00978077 0.00971048 7.55915e-06 0.00974392 1.71411e-07 272.976 
-0.45 -0.59 -0.0507603 0.455576 0.00978669 0.00971562 -1.66061e-06 0.00975459 1.71654e-07 272.888 
-0.49 -0.57 -0.0310187 0.536446 0.00978513 0.00970718 -8.31931e-06 0.00974438 1.71538e-07 272.788 
-0.35 -0.63 -0.41255 0.536802 0.00976266 0.00970917 8.69686e-06 0.00973717 1.71403e-07 272.801 
-0.39 -0.61 -0.15291 0.500263 0.00977799 0.0097021 5.14699e-06 0.0097391 1.71369e-07 272.908 
-0.43 -0.59 -0.0983739 0.837505 0.00977218 0.00969223 2.91722e-06 0.00974195 1.71583e-07 272.647 
-0.47 -0.57 -0.0581117 0.57571 0.00977667 0.00971873 -7.21339e-06 0.00974432 1.71538e-07 272.786 
-0.37 -0.61 -0.100541 0.766207 0.00978234 0.00970778 1.45512e-05 0.00974376 1.71547e-07 272.755 
-0.41 -0.59 -0.0186224 0.578052 0.00977696 0.00970727 1.04547e-06 0.00974052 1.71462e-07 272.801 
-0.45 -0.57 -0.0448346 0.638877 0.00977121 0.00970281 1.83587e-06 0.0097387 1.71367e-07 272.901 
-0.49 -0.55 -0.00119742 0.602416 0.00976408 0.00970593 -9.83774e-06 0.00973935 1.71493e-07 272.718 
-0.35 -0.61 -0.097808 0.518595 0.00977467 0.00970245 8.82569e-06 0.0097358 1.7133e-07 272.878 
-0.39 -0.59 -0.078573 0.509796 0.00977397 0.00968813 8.69769e-06 0.00973688 1.71398e-07 272.8 
-0.43 -0.57 0.0496554 0.650782 0.0097763 0.00969362 1.00337e-06 0.00973982 1.71364e-07 272.936 
-0.47 -0.55 -0.059874 0.759755 0.00977308 0.00970243 1.13062e-06 0.00974403 1.71649e-07 272.601 
-0.33 -0.61 -0.337162 0.629597 0.00977235 0.00969977 1.78216e-05 0.00973919 1.71282e-07 273.049 
-0.37 -0.59 -0.153626 0.694974 0.00977708 0.00971606 1.83464e-05 0.00974859 1.71575e-07 272.846 
-0.41 -0.57 -0.106511 0.692307 0.00977308 0.00970334 1.26219e-05 0.00973967 1.71398e-07 272.878 
-0.45 -0.55 -0.16085 0.501601 0.00976882 0.00970243 5.49746e-06 0.00973172 1.71313e-07 272.79 
-0.49 -0.53 0.0129713 0.623475 0.00975951 0.00969586 -3.56843e-06 0.00973416 1.71401e-07 272.719 
-0.35 -0.59 -0.259842 0.684588 0.00977222 0.00970003 1.36215e-05 0.00973253 1.71441e-07 272.609 
-0.39 -0.57 -0.374503 0.800434 0.00977333 0.00968684 3.74821e-06 0.00973954 1.71374e-07 272.913 
-0.43 -0.55 -0.160789 0.595225 0.00976192 0.00968887 6.1777e-06 0.0097289 1.71375e-07 272.613 
-0.47 -0.53 -0.00199591 0.636194 0.00975746 0.00969881 -1.74819e-06 0.00972858 1.71355e-07 272.635 
-0.29 -0.57 -0.54839 0.626278 0.00977213 0.00970744 2.05424e-05 0.00974254 1.71384e-07 272.98 
-0.33 -0.55 -0.462739 0.842935 0.00978557 0.00970913 1.3422e-05 0.00974796 1.71541e-07 272.883 
-0.29 -0.61 -0.354184 0.674992 0.00976626 0.00971911 9.1408e-06 0.00974631 1.71623e-07 272.706 
-0.33 -0.59 -0.336877 0.891569 0.00977224 0.00970115 1.24974e-05 0.00973581 1.71194e-07 273.095 
-0.27 -0.61 -0.418904 0.511315 0.00977601 0.00970844 1.40361e-05 0.00974592 1.71598e-07 272.735 
-0.31 -0.59 -0.586882 0.718 0.00977961 0.00970771 1.14902e-05 0.00974241 1.71478e-07 272.828 
-0.29 -0.59 -0.350739 0.46424 0.00978242 0.0097174 1.37976e-05 0.00974766 1.71559e-07 272.846 
-0.33 -0.57 -0.317539 0.883545 0.00977501 0.00970727 9.33607e-06 0.00974012 1.7134e-07 272.983 
-0.27 -0.59 -0.419022 0.648732 0.0097694 0.00969977 1.59014e-05 0.00973533 1.71367e-07 272.806 
-0.31 -0.57 -0.311166 0.705872 0.00977328 0.0097033 5.50309e-06 0.00973852 1.71397e-07 272.848 
-0.27 -0.57 -0.637278 0.656147 0.00977008 0.00970579 2.7661e-05 0.00975037 1.71617e-07 272.829 
-0.31 -0.55 -0.25385 0.945683 0.0097694 0.00969921 1.97387e-05 0.00974071 1.71439e-07 272.841 
-0.29 -0.55 -0.411504 0.646772 0.00975667 0.00969302 2.11621e-05 0.00972618 1.71261e-07 272.718 
-0.33 -0.53 -0.210264 0.988084 0.00976856 0.00969731 1.79831e-05 0.00973419 1.71255e-07 272.952 
-0.27 -0.55 -0.322248 0.585673 0.00976277 0.00971236 1.67617e-05 0.00973367 1.71363e-07 272.765 
-0.31 -0.53 -0.343252 0.769865 0.0097689 0.00970239 2.83656e-05 0.00974456 1.71522e-07 272.818 
-0.29 -0.53 -0.270552 0.679645 0.00978531 0.00970162 1.65504e-05 0.00975059 1.715e-07 273.021 
-0.33 -0.51 -0.39865 0.792213 0.00976297 0.00968339 2.02176e-05 0.00972805 1.71089e-07 273.045 
-0.27 -0.53 -0.471054 0.835804 0.00977534 0.00970816 2.14266e-05 0.00973924 1.71281e-07 273.052 
-0.31 -0.51 -0.289709 0.846602 0.009768 0.00970644 1.67307e-05 0.0097338 1.71286e-07 272.893 
-0.29 -0.51 -0.433347 0.810801 0.0097553 0.00970093 2.47735e-05 0.00973563 1.71351e-07 272.84 
-0.27 -0.51 -0.548458 1.13823 0.00975561 0.00970032 3.09419e-05 0.00973261 1.7123e-07 272.948 
-0.33 -0.65 -0.361837 0.461114 0.00977729 0.00970104 1.40633e-05 0.00974286 1.71418e-07 272.936 
-0.31 -0.65 -0.249889 0.696807 0.00977514 0.00971443 1.47489e-05 0.00974962 1.71505e-07 272.986 
-0.29 -0.65 -0.521939 0.508936 0.00976534 0.00970035 1.04774e-05 0.00973513 1.71225e-07 273.026 
-0.33 -0.63 -0.336348 0.545121 0.00976197 0.00970637 7.32223e-06 0.00974371 1.71529e-07 272.783 
-0.27 -0.65 -0.53561 0.433528 0.00977559 0.00972208 8.95426e-06 0.00974951 1.71494e-07 273.001 
-0.31 -0.63 -0.530575 0.679186 0.00976064 0.00970119 1.3915e-05 0.00973594 1.7128e-07 272.961 
-0.25 -0.65 -0.4936 0.402551 0.00976792 0.00971752 9.14253e-06 0.00974824 1.71579e-07 272.83 
-0.29 -0.63 -0.488438 0.450468 0.00977159 0.00972084 1.47588e-05 0.00974517 1.71528e-07 272.826 
-0.27 -0.63 -0.485107 0.467028 0.0097588 0.00971225 1.12572e-05 0.00973665 1.71528e-07 272.586 
-0.31 -0.61 -0.344895 0.584638 0.00977159 0.00970689 1.23354e-05 0.00974662 1.71619e-07 272.722 
-0.49 -0.67 -0.00574929 0.488272 0.0097765 0.00971333 -4.78467e-06 0.0097444 1.71492e-07 272.861 
-0.47 -0.67 0.0473524 0.405103 0.00977182 0.00972247 1.44646e-06 0.00974743 1.71586e-07 272.797 
-0.45 -0.67 0.0540185 0.478565 0.0097696 0.00972096 2.45886e-06 0.00974839 1.71591e-07 272.815 