ITEM: TIMESTEP
845000
ITEM: NUMBER OF CELLS
5000
ITEM: BOX BOUNDS ss ss pp
-0.5 0.5
-1 1
-0.5 0.5
ITEM: CELLS xc yc f_U[*] f_V[*] f_Tau[1] f_Tau[2] f_Tau[3] f_Press[*] f_Mrho[*] f_Ttra[*] 
-0.49 -0.99 -0.142627 0.106878 0.00977305 0.00973624 8.75328e-06 0.00976854 1.7192e-07 272.856 
-0.47 -0.99 -0.211328 -0.0789683 0.00975936 0.00972666 -1.02655e-05 0.00975072 1.71729e-07 272.661 
-0.45 -0.99 -0.224428 -0.0200408 0.00974331 0.00971717 6.93189e-06 0.00973249 1.71414e-07 272.652 
-0.49 -0.97 -0.197991 0.230792 0.00972833 0.00972827 1.79824e-05 0.00973155 1.711e-07 273.126 
-0.43 -0.99 -0.385922 0.224031 0.00973051 0.00973291 5.19632e-06 0.00974559 1.71219e-07 273.33 
-0.47 -0.97 -0.281976 0.15011 0.00972371 0.00972255 2.45771e-05 0.00973341 1.7135e-07 272.78 
-0.41 -0.99 -0.468526 -0.0537071 0.00972524 0.00974687 -3.37883e-06 0.00974274 1.71518e-07 272.773 
-0.45 -0.97 -0.135166 -0.133676 0.00972405 0.00972904 -1.39727e-06 0.00973193 1.71461e-07 272.562 
-0.49 -0.95 0.126232 0.232497 0.00970734 0.00970735 -5.58493e-06 0.00971233 1.70896e-07 272.911 
-0.39 -0.99 -0.457092 -0.274051 0.00972653 0.00972757 -1.19196e-05 0.00972923 1.70843e-07 273.472 
-0.43 -0.97 -0.0511925 0.130917 0.009742 0.00973968 -8.12508e-06 0.00974558 1.71385e-07 273.065 
-0.47 -0.95 0.117661 0.125719 0.00972996 0.00973154 2.46523e-06 0.0097225 1.71289e-07 272.57 
-0.37 -0.99 -0.243344 0.0607361 0.00972376 0.00971306 7.8537e-06 0.00972013 1.70961e-07 273.026 
-0.41 -0.97 -0.0242635 -0.0601503 0.00974239 0.00975426 -3.17887e-06 0.00975662 1.71324e-07 273.471 
-0.45 -0.95 0.167759 -0.227975 0.00974978 0.00975251 5.89267e-06 0.0097538 1.71845e-07 272.564 
-0.49 -0.93 0.0739547 0.0809449 0.00975549 0.00972053 2.86513e-06 0.00974535 1.71506e-07 272.865 
-0.35 -0.99 -0.193579 -0.13262 0.00970314 0.009677 9.49163e-06 0.00968827 1.70574e-07 272.749 
-0.39 -0.97 0.213334 -0.123512 0.0097162 0.00971906 1.94836e-05 0.00972952 1.71199e-07 272.911 
-0.43 -0.95 0.158112 0.118939 0.00974793 0.00973152 -5.90257e-06 0.00974129 1.7137e-07 272.969 
-0.47 -0.93 0.265715 -0.0230218 0.00975743 0.00973917 -6.17941e-06 0.00974706 1.71527e-07 272.88 
-0.33 -0.99 -0.0853629 0.114447 0.0097007 0.00970572 1.06895e-05 0.00970123 1.70748e-07 272.835 
-0.37 -0.97 -0.00231098 -0.113362 0.00969447 0.00970691 2.03593e-05 0.00970138 1.70721e-07 272.884 
-0.41 -0.95 -0.0486087 -0.237682 0.00973733 0.00973342 7.51683e-06 0.0097369 1.71415e-07 272.773 
-0.45 -0.93 0.172273 -0.0587495 0.00974303 0.00974536 -1.26909e-05 0.00973045 1.71523e-07 272.422 
-0.49 -0.91 0.185632 -0.0971156 0.00979404 0.00974373 8.17704e-06 0.00977018 1.71502e-07 273.567 
-0.35 -0.97 -0.109184 -0.187076 0.00969641 0.00968735 7.86456e-06 0.00969075 1.70401e-07 273.096 
-0.39 -0.95 -0.123832 -0.263494 0.00973458 0.00971743 1.80498e-05 0.00971747 1.71078e-07 272.765 
-0.43 -0.93 0.371056 0.0259709 0.009736 0.00971917 -4.19221e-06 0.00971474 1.70994e-07 272.822 
-0.47 -0.91 -0.170108 -0.00579913 0.00977654 0.00973249 -5.21706e-06 0.00974854 1.71814e-07 272.466 
-0.33 -0.97 -0.215625 -0.0667523 0.00970126 0.00969454 7.13741e-06 0.00970855 1.71071e-07 272.526 
-0.37 -0.95 -0.183428 0.141021 0.00975001 0.00970993 3.05306e-05 0.00972913 1.71088e-07 273.077 
-0.41 -0.93 0.125723 -0.0116731 0.00974328 0.00973531 2.83467e-05 0.00972487 1.71116e-07 272.913 
-0.45 -0.91 0.0742347 -0.291187 0.00977757 0.00974193 3.9024e-06 0.0097447 1.71497e-07 272.862 
-0.49 -0.89 -0.16802 0.0682169 0.00979894 0.00975394 4.86286e-06 0.00976751 1.71659e-07 273.242 
-0.35 -0.95 -0.173621 -0.0614359 0.00975047 0.00970392 4.36877e-06 0.00973322 1.71551e-07 272.455 
-0.39 -0.93 -0.167985 -0.0589865 0.00973564 0.00970551 1.20654e-05 0.00971259 1.70959e-07 272.818 
-0.43 -0.91 -0.123462 0.00344556 0.00975831 0.00971526 1.23429e-05 0.00972995 1.70862e-07 273.462 
-0.47 -0.89 -0.00142674 -0.108454 0.00978279 0.00973837 1.00281e-05 0.00975007 1.71824e-07 272.493 
-0.37 -0.93 -0.0955278 0.0104931 0.00975495 0.0097081 -9.47939e-06 0.00973529 1.71292e-07 272.924 
-0.41 -0.91 -0.193058 0.576823 0.00975332 0.00970718 8.8539e-06 0.00972341 1.71263e-07 272.637 
-0.45 -0.89 -0.325589 -0.0609408 0.00977014 0.00972767 7.27803e-07 0.00974184 1.71352e-07 273.012 
-0.49 -0.87 0.0210942 0.10272 0.00974979 0.00973113 1.03645e-07 0.00973172 1.71226e-07 272.93 
-0.35 -0.93 -0.521028 0.363035 0.00976679 0.00971693 9.27879e-06 0.0097323 1.71307e-07 272.816 
-0.39 -0.91 -0.339959 -0.217744 0.00977832 0.00973628 8.52388e-06 0.00976232 1.71607e-07 273.18 
-0.43 -0.89 -0.51172 0.212879 0.00978003 0.00971661 1.78761e-05 0.00975767 1.71311e-07 273.521 
-0.47 -0.87 0.0578607 0.211578 0.00974978 0.00974373 4.83814e-06 0.00974104 1.71354e-07 272.986 
-0.37 -0.91 -0.218511 0.149257 0.00975893 0.00971248 4.88366e-06 0.00974236 1.71372e-07 272.994 
-0.41 -0.89 -0.445035 0.486495 0.00977775 0.0097033 -6.81236e-07 0.00974748 1.716e-07 272.775 
-0.45 -0.87 -0.470417 0.132559 0.00976045 0.00970858 1.32449e-05 0.00974549 1.71455e-07 272.95 
-0.49 -0.85 0.0455828 0.0239426 0.00974973 0.00972014 -5.0401e-06 0.00972785 1.71453e-07 272.46 
-0.35 -0.91 -0.132728 0.368458 0.0097491 0.00970832 -4.69821e-06 0.00971922 1.71001e-07 272.937 
-0.39 -0.89 -0.231473 0.050221 0.00977026 0.00973151 1.60774e-05 0.0097561 1.71575e-07 273.056 
-0.43 -0.87 -0.221263 0.162283 0.0097526 0.00973364 8.95306e-06 0.00975639 1.71685e-07 272.889 
-0.47 -0.85 0.00982604 0.410601 0.00976899 0.00974582 1.24348e-05 0.00975971 1.71604e-07 273.112 
-0.33 -0.91 -0.520531 0.114245 0.00975732 0.00970803 2.00321e-06 0.00972609 1.71172e-07 272.858 
-0.37 -0.89 -0.351539 -0.133046 0.00977115 0.00972524 2.01334e-05 0.00975319 1.71348e-07 273.337 
-0.41 -0.87 -0.126287 0.445284 0.00976228 0.00972115 9.45486e-06 0.00975569 1.71671e-07 272.892 
-0.45 -0.85 -0.0689095 0.299025 0.00975879 0.00970985 9.43999e-06 0.0097343 1.71351e-07 272.802 
-0.35 -0.89 -0.360266 0.65455 0.00977096 0.00970697 -7.33455e-07 0.00973217 1.7132e-07 272.792 
-0.39 -0.87 -0.223968 -0.142879 0.00977228 0.00970683 8.70019e-07 0.00973818 1.7159e-07 272.531 
-0.43 -0.85 -0.348305 0.251813 0.00977112 0.00972997 -5.87528e-06 0.00974302 1.71657e-07 272.559 
-0.37 -0.87 -0.364256 0.140785 0.00977421 0.00973915 1.35401e-06 0.00975892 1.71673e-07 272.979 
-0.41 -0.85 -0.284767 0.518188 0.00977656 0.00971984 8.29892e-06 0.00974799 1.71672e-07 272.676 
-0.35 -0.87 -0.0430802 0.293993 0.00978084 0.0097224 4.49872e-06 0.00975853 1.71639e-07 273.022 
-0.39 -0.85 -0.402389 0.241574 0.0097664 0.00971923 3.44272e-06 0.00973984 1.71582e-07 272.591 
-0.33 -0.87 -0.15553 0.196516 0.00977021 0.00970235 9.29991e-06 0.00974258 1.71342e-07 273.049 
-0.37 -0.85 -0.57989 -0.289294 0.00976801 0.00972898 5.53472e-06 0.00975486 1.71672e-07 272.867 
-0.35 -0.85 -0.458969 0.106202 0.00975587 0.00971792 1.02406e-05 0.00974173 1.71324e-07 273.054 
-0.33 -0.85 -0.336622 0.534768 0.00974789 0.009693 1.57019e-05 0.0097191 1.71089e-07 272.793 
-0.31 -0.99 -0.0781095 0.0537894 0.0097043 0.00967947 1.30295e-05 0.00969224 1.70829e-07 272.454 
-0.29 -0.99 -0.474105 0.309842 0.00971249 0.00969833 -3.52718e-06 0.00969448 1.70845e-07 272.492 
-0.27 -0.99 -0.390514 -0.365527 0.00975075 0.00974217 2.36897e-07 0.00973663 1.71257e-07 273.018 
-0.31 -0.97 -0.610964 0.242371 0.00973027 0.00970724 -1.11611e-05 0.00972787 1.71397e-07 272.549 
-0.29 -0.97 -0.414083 0.090451 0.00974265 0.00970856 -1.69582e-06 0.00973096 1.71232e-07 272.898 
-0.33 -0.95 -0.274781 0.148127 0.00975472 0.00970631 -9.6415e-06 0.00973336 1.71377e-07 272.735 
-0.27 -0.97 0.101017 -0.405657 0.00972463 0.00972402 -7.56443e-06 0.00973077 1.71565e-07 272.363 
-0.31 -0.95 -0.0972166 0.396472 0.00974389 0.00970023 -1.09457e-06 0.00971977 1.71461e-07 272.22 
-0.29 -0.95 -0.0830268 -0.255496 0.00973808 0.00969895 -2.85217e-06 0.00971704 1.71395e-07 272.249 
-0.33 -0.93 -0.312041 -0.0715994 0.00976306 0.00970491 5.09765e-06 0.00973336 1.71296e-07 272.864 
-0.27 -0.95 -0.338047 -0.408256 0.009743 0.00974481 -2.57555e-06 0.00974139 1.7151e-07 272.748 
-0.31 -0.93 -0.281188 0.162888 0.00976118 0.0097068 -2.87117e-06 0.00972825 1.71322e-07 272.678 
-0.29 -0.93 -0.35845 -0.0188334 0.00976395 0.00970085 -2.52415e-06 0.00973526 1.71644e-07 272.364 
-0.27 -0.93 -0.0902094 -0.334232 0.00978505 0.0097412 -9.39685e-06 0.00977549 1.72183e-07 272.633 
-0.31 -0.91 -0.326132 0.0981157 0.00976881 0.00970516 7.40925e-06 0.00974336 1.71622e-07 272.625 
-0.29 -0.91 -0.287014 -0.262621 0.00975668 0.00971559 -1.65865e-05 0.00972963 1.71384e-07 272.619 
-0.33 -0.89 -0.174984 -0.101683 0.00977118 0.00971341 -1.11723e-05 0.00973981 1.71172e-07 273.243 
-0.27 -0.91 -0.500653 -0.205194 0.00975095 0.00971407 -1.11522e-05 0.00972795 1.71426e-07 272.505 
-0.31 -0.89 -0.229445 -0.00563246 0.00977431 0.00969493 -4.21637e-06 0.00974006 1.71576e-07 272.606 
-0.29 -0.89 -8.46534e-05 -0.292567 0.00977603 0.00973818 -4.34904e-06 0.00975648 1.71475e-07 273.226 
-0.27 -0.89 -0.209076 0.0818741 0.00975324 0.00970539 -1.28707e-06 0.00973599 1.71566e-07 272.508 
-0.31 -0.87 -0.293078 -0.147284 0.00973982 0.00970049 2.70489e-06 0.00972582 1.71331e-07 272.597 
-0.29 -0.87 -0.4035 -0.286762 0.00972676 0.00973309 9.28228e-06 0.0097396 1.71393e-07 272.884 
-0.27 -0.87 -0.454298 0.515361 0.00972969 0.00971644 -1.44615e-06 0.00971816 1.71334e-07 272.377 
-0.31 -0.85 -0.338943 -0.269493 0.00976255 0.00971735 1.3812e-05 0.00973792 1.71663e-07 272.408 
-0.29 -0.85 -0.294023 0.0462786 0.00974902 0.00973041 1.19953e-05 0.00974752 1.71611e-07 272.76 
-0.27 -0.85 -0.446429 0.503785 0.00974043 0.00972262 5.8709e-06 0.00973806 1.70879e-07 273.662 
-0.25 -0.99 -0.218663 0.0362195 0.00976308 0.00976201 4.36041e-06 0.0097614 1.71653e-07 273.082 
-0.25 -0.97 0.0111313 0.222519 0.00973555 0.0097546 -1.19539e-05 0.00974682 1.71403e-07 273.071 
-0.25 -0.95 -0.280502 0.223549 0.00972675 0.00974511 -5.91456e-06 0.00974676 1.71516e-07 272.889 
-0.25 -0.93 -0.292865 0.085715 0.00977311 0.00973947 9.45882e-06 0.00975356 1.71606e-07 272.937 
-0.25 -0.91 -0.133222 -0.0344227 0.00975245 0.00973 7.56321e-06 0.00974082 1.71461e-07 272.809 
-0.25 -0.89 -0.582932 0.00740135 0.00975995 0.00972044 2.53517e-06 0.00973623 1.71313e-07 272.917 
-0.25 -0.87 -0.834496 -0.0229622 0.00972127 0.00970755 2.48026e-06 0.0097247 1.71028e-07 273.048 
-0.25 -0.85 -0.304809 0.290862 0.0097476 0.0097064 -1.21374e-05 0.00973625 1.71128e-07 273.213 
-0.25 -0.83 -0.177766 0.0418495 0.00975818 0.00969878 3.26136e-06 0.00974744 1.71244e-07 273.341 
-0.33 -0.81 0.0976041 0.0819989 0.00976875 0.00970451 1.40799e-07 0.00973147 1.71302e-07 272.801 
-0.31 -0.81 -0.258739 0.184552 0.00979378 0.00971827 4.7288e-06 0.00975662 1.71393e-07 273.362 
-0.29 -0.81 -0.278727 -0.128453 0.00978464 0.00973263 -2.31811e-06 0.00976214 1.71521e-07 273.311 
-0.27 -0.81 0.0560216 0.331964 0.00978015 0.009731 1.15993e-05 0.00976883 1.71672e-07 273.258 
-0.31 -0.79 0.192351 0.32261 0.00975546 0.00971464 -4.19762e-06 0.00973218 1.71366e-07 272.72 
-0.29 -0.79 -0.193151 0.161376 0.00975371 0.00972533 -1.07482e-06 0.00973373 1.71362e-07 272.768 
-0.33 -0.77 -0.33253 0.117217 0.00975962 0.00972757 1.53734e-05 0.00973878 1.71447e-07 272.775 
-0.27 -0.79 -0.534403 0.197414 0.00974492 0.00970093 9.51197e-06 0.0097307 1.71156e-07 273.012 
-0.31 -0.77 -0.270244 0.32424 0.00974628 0.00970271 2.65593e-06 0.00972656 1.7136e-07 272.571 
-0.29 -0.77 -0.27745 0.761729 0.00975797 0.00972676 9.16842e-06 0.00974007 1.71581e-07 272.598 
-0.27 -0.77 -0.559446 0.2468 0.00976274 0.00969481 6.43048e-06 0.00974074 1.71696e-07 272.434 
-0.31 -0.75 0.146956 0.810597 0.00975785 0.00971777 1.63783e-06 0.0097571 1.71865e-07 272.624 
-0.29 -0.75 -0.387251 0.881867 0.00975776 0.00972281 1.02743e-05 0.00973806 1.71484e-07 272.697 
-0.27 -0.75 -0.501131 0.469944 0.00975473 0.00969535 1.20683e-05 0.00972712 1.71343e-07 272.614 
-0.49 -0.83 -0.164271 0.19144 0.00975652 0.00971277 1.04116e-06 0.00974217 1.71513e-07 272.765 
-0.47 -0.83 -0.0627729 0.182942 0.00975579 0.00972535 -1.94509e-06 0.0097426 1.71571e-07 272.685 
-0.45 -0.83 0.313557 0.363354 0.00975874 0.00973088 1.3751e-07 0.00974592 1.71419e-07 273.019 
-0.49 -0.81 0.106121 -0.0384631 0.00976294 0.00971845 -6.60293e-07 0.0097549 1.71584e-07 273.009 
-0.43 -0.83 0.164677 0.318117 0.00974746 0.00971244 7.1488e-06 0.00972898 1.71447e-07 272.5 
-0.47 -0.81 0.0140535 0.360883 0.00976115 0.00972226 -1.79262e-06 0.00976182 1.71663e-07 273.076 
-0.45 -0.81 -0.1904 0.249228 0.00977268 0.00972 1.13165e-05 0.00975138 1.71837e-07 272.508 
-0.49 -0.79 -0.266516 0.318461 0.00975019 0.00972424 4.70757e-06 0.00973926 1.71584e-07 272.571 
-0.43 -0.81 -0.292459 0.560485 0.00978904 0.00972579 1.36333e-06 0.00975195 1.71761e-07 272.646 
-0.47 -0.79 -0.212378 0.215581 0.00974608 0.00971439 -6.30415e-06 0.00972951 1.71381e-07 272.621 
-0.41 -0.81 -0.38878 0.893274 0.0097502 0.00970401 1.66647e-05 0.00973568 1.71433e-07 272.711 
-0.45 -0.79 -0.319793 0.437369 0.00973612 0.00971962 -6.01113e-06 0.00972817 1.71409e-07 272.539 
-0.49 -0.77 0.291176 0.267116 0.00973415 0.00972882 4.89832e-06 0.00972754 1.71239e-07 272.791 
-0.39 -0.81 -0.423998 0.171259 0.00974366 0.00970982 1.15855e-05 0.00975377 1.71681e-07 272.823 
-0.43 -0.79 -0.414451 0.614127 0.00974975 0.00971466 4.80547e-06 0.00973925 1.71481e-07 272.734 
-0.47 -0.77 -0.162394 0.502732 0.00973427 0.00970994 3.00413e-06 0.00971714 1.71083e-07 272.747 
-0.37 -0.81 0.162463 -0.0540025 0.00974687 0.00973295 -1.49463e-06 0.00974704 1.7171e-07 272.589 
-0.41 -0.79 -0.462484 0.611381 0.0097805 0.00970712 5.88996e-06 0.00975135 1.71924e-07 272.37 
-0.45 -0.77 -0.724117 0.978429 0.00975244 0.00973291 -9.49182e-06 0.00974847 1.71651e-07 272.721 
-0.35 -0.81 0.048272 0.121029 0.00975593 0.00971332 6.14272e-06 0.00974992 1.71536e-07 272.945 
-0.39 -0.79 0.0536066 -0.287582 0.00978551 0.00970995 7.36468e-06 0.00975476 1.71738e-07 272.76 
-0.43 -0.77 -0.768602 0.461041 0.00973245 0.00970606 -6.00536e-06 0.00971988 1.71214e-07 272.617 
-0.37 -0.79 -0.127099 0.0508085 0.00979533 0.00974042 1.19777e-05 0.00976567 1.71884e-07 272.833 
-0.41 -0.77 -0.304247 0.0231381 0.00972123 0.00969739 -1.25907e-08 0.00971416 1.71417e-07 272.134 
-0.35 -0.79 0.0691243 0.234 0.0097791 0.00971542 4.45185e-06 0.00974836 1.71822e-07 272.447 
-0.39 -0.77 -0.0449857 -0.0699933 0.00973463 0.00972347 -2.10926e-06 0.00974732 1.71696e-07 272.619 
-0.43 -0.75 0.102259 0.360018 0.00974044 0.00970372 3.35658e-06 0.0097299 1.71338e-07 272.699 
-0.33 -0.79 0.042995 0.198936 0.0097637 0.00971321 -2.48134e-06 0.00973054 1.71536e-07 272.403 
-0.37 -0.77 0.0762144 0.0184936 0.0097438 0.00971799 1.16544e-06 0.00973158 1.71321e-07 272.774 
-0.41 -0.75 0.0772248 0.0426563 0.009743 0.0097096 6.02386e-07 0.00973202 1.71392e-07 272.674 
-0.35 -0.77 -0.0255498 0.443519 0.00975899 0.00972352 2.94893e-06 0.00975278 1.71187e-07 273.582 
-0.39 -0.75 -0.159036 0.0728721 0.0097391 0.00970925 -5.37921e-06 0.00973422 1.71469e-07 272.612 
-0.49 -0.75 -0.16778 0.210728 0.00973246 0.00972456 -4.73792e-07 0.0097303 1.70736e-07 273.672 
-0.47 -0.75 -0.193462 0.824602 0.00974196 0.00972908 -1.49114e-05 0.00973127 1.70968e-07 273.328 
-0.45 -0.75 0.0936853 0.899047 0.00973858 0.00971437 -7.58238e-06 0.00972846 1.71407e-07 272.55 
-0.49 -0.73 -0.0856216 0.363798 0.00978974 0.00972408 4.9656e-06 0.00976094 1.71231e-07 273.74 
-0.47 -0.73 -0.0828244 0.782306 0.00977126 0.00974898 -1.49271e-06 0.00976425 1.71211e-07 273.866 
-0.45 -0.73 0.00240913 0.242642 0.00976216 0.009698 -9.65268e-06 0.00973298 1.71444e-07 272.617 
-0.49 -0.71 -0.115575 0.441693 0.00980454 0.0097403 1.10923e-05 0.00978704 1.71965e-07 273.302 
-0.43 -0.73 0.42596 0.446547 0.00975199 0.00970497 -8.22096e-08 0.00973708 1.71299e-07 272.964 
-0.47 -0.71 -0.188275 0.51923 0.00980654 0.00974717 5.27281e-06 0.00977813 1.71677e-07 273.511 
-0.37 -0.75 -0.38396 -0.224345 0.00972748 0.00972474 6.91021e-06 0.00971932 1.71461e-07 272.209 
-0.41 -0.73 0.360091 0.315462 0.00975268 0.009704 -5.04003e-06 0.00973406 1.71258e-07 272.944 
-0.45 -0.71 0.418864 0.0876867 0.0097811 0.00970451 1.03128e-05 0.00974938 1.71622e-07 272.793 
-0.49 -0.69 0.0120321 0.490776 0.00977363 0.00972904 -9.74785e-06 0.00976013 1.71514e-07 273.267 
-0.35 -0.75 -0.117165 0.215063 0.00973614 0.00972616 3.99399e-06 0.00973148 1.71346e-07 272.732 
-0.39 -0.73 0.315736 -0.132503 0.00975597 0.00970029 2.65729e-06 0.00972278 1.71143e-07 272.811 
-0.43 -0.71 0.206419 0.153605 0.00977366 0.00970915 3.0039e-06 0.00974271 1.71568e-07 272.693 
-0.47 -0.69 0.532402 0.0239353 0.00977574 0.00972283 2.04948e-05 0.00975898 1.71517e-07 273.229 
-0.37 -0.73 0.32017 0.132431 0.00976301 0.00972782 6.95862e-06 0.0097365 1.71669e-07 272.358 
-0.41 -0.71 0.511814 0.487565 0.0097806 0.00969591 -3.63552e-06 0.00974775 1.71863e-07 272.365 
-0.45 -0.69 0.194717 0.4282 0.00979681 0.00972071 1.81552e-05 0.00976769 1.71993e-07 272.716 
-0.35 -0.73 -0.140244 0.120932 0.00975457 0.00972204 2.51236e-06 0.00974895 1.71518e-07 272.947 
-0.39 -0.71 0.306509 0.044553 0.00977892 0.00971289 2.19741e-06 0.00974862 1.71729e-07 272.602 
-0.43 -0.69 -0.0226057 0.250729 0.00980067 0.00972628 5.00395e-06 0.0097671 1.72313e-07 272.193 
-0.33 -0.73 -0.251178 -0.0692214 0.00974986 0.00971196 9.4921e-06 0.00975007 1.71853e-07 272.446 
-0.37 -0.71 0.129829 0.0256746 0.00975549 0.0097178 3.81611e-06 0.00975226 1.71722e-07 272.716 
-0.41 -0.69 0.0087421 -0.0170685 0.0097765 0.00970659 1.40663e-06 0.00974286 1.71596e-07 272.652 
-0.35 -0.71 -0.168119 0.504995 0.0097441 0.00971294 3.79087e-06 0.00975676 1.7172e-07 272.844 
-0.39 -0.69 0.00949929 0.313666 0.00976199 0.00969672 9.09895e-06 0.00973113 1.71484e-07 272.503 
-0.37 -0.69 -0.137838 0.269111 0.00978125 0.0097118 8.03638e-06 0.00976222 1.71788e-07 272.889 
-0.35 -0.69 -0.0422968 0.704465 0.00979052 0.00973072 1.01192e-05 0.00976687 1.71581e-07 273.348 
-0.35 -0.67 -0.0381075 0.51565 0.00978649 0.00974245 1.03406e-05 0.00976198 1.71526e-07 273.299 
-0.33 -0.67 -0.0487096 0.630517 0.0097727 0.00971434 3.27878e-07 0.00975246 1.71664e-07 272.813 
-0.33 -0.75 0.458758 0.189639 0.00974303 0.00970533 9.70905e-09 0.00973553 1.71634e-07 272.387 
-0.31 -0.73 -0.0866969 0.920362 0.00975643 0.00972668 -7.68522e-06 0.00974853 1.71627e-07 272.761 
-0.29 -0.73 0.180857 1.06524 0.00974378 0.00970145 -2.01003e-06 0.00973098 1.71338e-07 272.73 
-0.33 -0.71 -0.424635 0.00278862 0.00976069 0.00973041 -3.30621e-06 0.00974889 1.71654e-07 272.729 
-0.27 -0.73 -0.108405 0.852378 0.00975309 0.0097148 1.63238e-05 0.00973887 1.71076e-07 273.37 
-0.31 -0.71 -0.253504 0.562647 0.00974769 0.00971954 1.11974e-05 0.00975544 1.71827e-07 272.638 
-0.29 -0.71 -0.0251715 0.844247 0.00973741 0.00969373 6.44238e-06 0.00973124 1.714e-07 272.639 
-0.33 -0.69 -0.260275 0.265212 0.00978156 0.00971737 -7.83349e-06 0.00976031 1.71891e-07 272.673 
-0.27 -0.71 0.397772 0.892936 0.0097551 0.00970861 -1.64502e-06 0.00973768 1.71385e-07 272.844 
-0.31 -0.69 -0.583094 0.245944 0.00978394 0.00970853 1.437e-05 0.00975293 1.71811e-07 272.593 
-0.29 -0.69 -0.41375 0.489183 0.00978504 0.00971477 7.43273e-06 0.00976169 1.71878e-07 272.732 
-0.27 -0.69 -0.189704 0.827742 0.00977158 0.00970279 1.05602e-06 0.00975069 1.71328e-07 273.299 
-0.31 -0.67 -0.204776 0.53414 0.0097689 0.00969294 2.76629e-06 0.00973468 1.71478e-07 272.611 
-0.29 -0.67 -0.488344 0.514709 0.00978238 0.00972651 9.34929e-06 0.0097613 1.71609e-07 273.148 
-0.41 -0.83 -0.0337798 0.53488 0.00976421 0.00972446 -5.13977e-06 0.00974842 1.71702e-07 272.639 
-0.39 -0.83 -0.19479 0.506161 0.00975987 0.00971156 1.31915e-05 0.00973379 1.71511e-07 272.534 
-0.37 -0.83 -0.218733 0.0904633 0.00974621 0.00972804 1.64223e-05 0.00974712 1.71785e-07 272.471 
-0.35 -0.83 -0.247069 0.15649 0.00975522 0.00971279 1.62911e-05 0.00972903 1.71341e-07 272.67 
-0.33 -0.83 -0.253133 0.118262 0.00976056 0.00970095 7.02642e-06 0.00973095 1.71098e-07 273.111 
-0.31 -0.83 0.0823898 -0.282844 0.00975074 0.00969949 4.80885e-06 0.00974126 1.71384e-07 272.945 
-0.29 -0.83 -0.0952016 0.141144 0.00977228 0.00974286 7.30472e-06 0.00977601 1.71627e-07 273.531 
-0.27 -0.83 -0.256008 0.506194 0.00978008 0.00973816 1.04285e-05 0.00977159 1.71632e-07 273.399 
-0.27 -0.67 -0.611375 0.537005 0.00976857 0.0097038 1.94105e-05 0.00975268 1.71548e-07 273.004 
-0.25 -0.67 -0.356085 0.761874 0.00977516 0.0096943 6.85641e-07 0.00974815 1.715e-07 272.954 
-0.25 -0.81 -0.0594371 0.257717 0.00976812 0.0097155 1.58772e-05 0.00975271 1.71321e-07 273.367 
-0.25 -0.79 -0.521174 0.215093 0.00978196 0.00973616 1.88619e-05 0.00975783 1.71318e-07 273.515 
-0.35 -0.55 -0.0673641 0.962703 0.0097919 0.00971923 6.47772e-06 0.00975621 1.71742e-07 272.795 
-0.39 -0.53 0.0851975 1.1035 0.00977187 0.00968949 6.7054e-06 0.00974017 1.71377e-07 272.926 
-0.37 -0.57 -0.137129 0.992346 0.00977344 0.00971178 9.42738e-06 0.00974953 1.71381e-07 273.181 
-0.41 -0.55 0.163513 1.09538 0.00974474 0.00971578 -1.10621e-05 0.00973752 1.71613e-07 272.476 
-0.45 -0.53 0.280676 0.473861 0.00977056 0.00969875 -3.63539e-07 0.00972286 1.71282e-07 272.592 
-0.35 -0.57 -0.0594031 0.799584 0.00976442 0.0097045 2.75288e-05 0.00973551 1.71366e-07 272.812 
-0.39 -0.55 -0.239334 0.893777 0.0097528 0.00969701 1.37497e-05 0.0097407 1.71436e-07 272.846 
-0.43 -0.53 -0.187649 0.437539 0.00976908 0.00970552 4.92334e-06 0.00973925 1.71585e-07 272.568 
-0.47 -0.51 -0.304461 0.444235 0.00976596 0.00968522 1.04427e-06 0.00971846 1.71272e-07 272.485 
-0.37 -0.55 -0.104744 0.949747 0.00974438 0.00968367 1.0033e-06 0.00972894 1.7118e-07 272.925 
-0.41 -0.53 -0.371136 0.690096 0.00977402 0.00971179 7.70435e-06 0.00973651 1.71529e-07 272.582 
-0.45 -0.51 -0.335722 0.782588 0.00977643 0.00968989 7.83222e-06 0.00973534 1.71619e-07 272.405 
-0.37 -0.53 -0.00382636 1.08857 0.00976826 0.00971441 1.3796e-06 0.00975122 1.71748e-07 272.645 
-0.41 -0.51 -0.511092 0.640275 0.00977306 0.00970845 5.5905e-06 0.00973563 1.71486e-07 272.626 
-0.35 -0.53 -0.289342 1.06956 0.00974592 0.00970004 -9.80538e-06 0.00972285 1.71511e-07 272.228 
-0.39 -0.51 -0.604682 0.968142 0.00977307 0.0096835 2.63008e-06 0.00972462 1.71387e-07 272.474 
-0.37 -0.51 -0.75611 1.13852 0.00978884 0.00971838 8.91223e-06 0.0097544 1.71911e-07 272.475 
-0.35 -0.51 -0.60237 0.942819 0.00978075 0.00969643 9.45251e-06 0.00973737 1.71562e-07 272.553 
-0.49 -0.65 0.0272805 0.200496 0.00977769 0.00971051 1.75053e-05 0.00974804 1.71426e-07 273.068 
-0.47 -0.65 -0.220425 0.36505 0.00977551 0.00972802 1.0962e-05 0.00975973 1.71845e-07 272.729 
-0.45 -0.65 -0.119298 0.410115 0.00976151 0.00973345 -2.46366e-06 0.0097584 1.7209e-07 272.304 
-0.49 -0.63 -0.0977553 0.344443 0.0097632 0.00970635 1.52696e-05 0.00975282 1.71983e-07 272.317 
-0.43 -0.65 -0.0288116 0.804332 0.00974439 0.00969252 5.66963e-06 0.00972915 1.71209e-07 272.885 
-0.47 -0.63 -0.0864425 0.520242 0.00977607 0.00973578 3.76153e-06 0.00977047 1.72229e-07 272.421 
-0.41 -0.65 0.0944902 0.19951 0.00976422 0.00971386 8.39859e-06 0.00974106 1.71464e-07 272.813 
-0.45 -0.63 -0.408949 0.500542 0.00978928 0.00973552 2.12621e-05 0.00977018 1.72243e-07 272.389 
-0.49 -0.61 -0.0781302 0.589695 0.0097724 0.00970165 -1.53023e-05 0.00974794 1.71922e-07 272.278 
-0.39 -0.65 0.167252 0.212419 0.00975801 0.00972794 8.75773e-06 0.00974346 1.71456e-07 272.892 
-0.43 -0.63 -0.364992 0.561116 0.00978002 0.00970558 -6.59259e-07 0.00974758 1.71352e-07 273.173 
-0.47 -0.61 -0.426527 0.493174 0.00977489 0.00973647 9.9899e-08 0.00977159 1.72132e-07 272.606 
-0.37 -0.65 -0.395824 0.237426 0.00975021 0.0096847 -8.68172e-06 0.00971805 1.71028e-07 272.862 
-0.41 -0.63 -0.447769 0.16985 0.00977484 0.00969962 7.2754e-06 0.00974033 1.71312e-07 273.034 
-0.45 -0.61 -0.134794 0.740089 0.00978254 0.00973148 -4.64607e-06 0.00977332 1.71976e-07 272.9 
-0.49 -0.59 -0.0650009 0.58244 0.0097603 0.00968607 -1.93558e-05 0.00973819 1.71396e-07 272.839 
-0.35 -0.65 -0.563683 0.344643 0.00976698 0.00974571 9.34965e-06 0.00974529 1.71478e-07 272.908 
-0.39 -0.63 -0.445045 0.519903 0.00978414 0.00973071 1.2475e-05 0.00974619 1.71475e-07 272.939 
-0.43 -0.61 -0.0313662 0.643131 0.00979726 0.00970789 1.53585e-05 0.00976453 1.71523e-07 273.375 
-0.47 -0.59 -0.0306412 0.651834 0.00977651 0.00972979 -1.43113e-05 0.00976393 1.71786e-07 272.94 
-0.37 -0.63 -0.521979 0.665697 0.00976541 0.0096997 8.40989e-06 0.00973362 1.71345e-07 272.792 
-0.41 -0.61 -0.236419 0.326249 0.00979162 0.0097116 5.48829e-06 0.00974647 1.71217e-07 273.358 
-0.45 -0.59 -0.106042 0.267491 0.00978138 0.00972195 -1.34968e-06 0.00976451 1.71705e-07 273.084 
-0.49 -0.57 0.0231906 0.531209 0.00978242 0.00969556 -2.04592e-05 0.00973681 1.71422e-07 272.761 
-0.35 -0.63 -0.674831 0.234227 0.00974693 0.00971779 4.43284e-06 0.00972209 1.71244e-07 272.631 
-0.39 -0.61 -0.213486 0.292372 0.00979741 0.00970714 8.83719e-06 0.00974761 1.71419e-07 273.068 
-0.43 -0.59 0.340193 0.582217 0.00977954 0.00969983 4.09765e-06 0.00974419 1.71627e-07 272.641 
-0.47 -0.57 -0.0697331 0.735307 0.00977337 0.00971646 -8.84005e-06 0.00974256 1.71451e-07 272.875 
-0.37 -0.61 -0.186954 0.66254 0.00980286 0.00971712 2.06759e-05 0.00976139 1.71395e-07 273.491 
-0.41 -0.59 0.531769 0.414253 0.00978291 0.00971614 3.15966e-06 0.00975265 1.71254e-07 273.472 
-0.45 -0.57 0.140414 0.143996 0.00976003 0.00970408 -1.00681e-06 0.00973755 1.71593e-07 272.508 
-0.49 -0.55 -0.0288981 0.593025 0.00977258 0.00970506 -1.1655e-05 0.00974063 1.71585e-07 272.608 
-0.35 -0.61 -0.200982 0.512643 0.0097904 0.00971296 1.13437e-05 0.00974597 1.71338e-07 273.15 
-0.39 -0.59 0.197686 0.751726 0.00977897 0.00967194 9.48793e-06 0.00973272 1.71149e-07 273.08 
-0.43 -0.57 0.212684 0.359707 0.00976468 0.00969699 1.48023e-06 0.00974062 1.71235e-07 273.165 
-0.47 -0.55 0.194459 0.718789 0.00977031 0.00968533 -1.35205e-05 0.00972311 1.71574e-07 272.135 
-0.33 -0.61 -0.63315 0.522252 0.00978048 0.00969494 2.19649e-05 0.00974592 1.71447e-07 272.975 
-0.37 -0.59 -0.0873146 0.509232 0.00978067 0.00974178 2.05562e-05 0.00976179 1.71618e-07 273.148 
-0.41 -0.57 -0.0652398 0.776031 0.00977378 0.00972266 1.8144e-05 0.00974892 1.71534e-07 272.922 
-0.45 -0.55 -0.0551765 0.0296982 0.00976613 0.0097033 -2.41305e-06 0.0097203 1.7146e-07 272.237 
-0.49 -0.53 0.203908 0.55449 0.00977583 0.00970333 6.12177e-06 0.00973621 1.71423e-07 272.742 
-0.35 -0.59 -0.490963 0.836591 0.0097853 0.00969891 1.69207e-05 0.00973887 1.71574e-07 272.576 
-0.39 -0.57 -0.236413 0.907429 0.00975911 0.00968151 -3.06521e-06 0.00972709 1.71115e-07 272.977 
-0.43 -0.55 -0.0397768 0.263328 0.00975999 0.00970174 1.14094e-05 0.00974207 1.71717e-07 272.438 
-0.47 -0.53 0.262553 0.423056 0.00976623 0.00968481 3.94169e-06 0.00971775 1.71292e-07 272.432 
-0.29 -0.57 -0.349495 0.505629 0.00976706 0.00969052 2.40142e-05 0.00973483 1.71332e-07 272.847 
-0.33 -0.55 -0.514057 0.92406 0.00980003 0.00972543 4.46057e-06 0.00975461 1.71546e-07 273.062 
-0.29 -0.61 -0.471099 0.663611 0.00976174 0.0097071 -1.35529e-06 0.00973579 1.71433e-07 272.713 
-0.33 -0.59 -0.420113 0.985011 0.00978549 0.00970719 2.07908e-05 0.00975445 1.71537e-07 273.071 
-0.27 -0.61 -0.602493 0.636636 0.00978085 0.00969334 1.51272e-05 0.00974642 1.71601e-07 272.744 
-0.31 -0.59 -0.790556 0.766745 0.0097898 0.00974518 1.17487e-05 0.00976676 1.71778e-07 273.031 
-0.29 -0.59 -0.528161 0.259157 0.00979642 0.00969431 1.57883e-05 0.00974252 1.71299e-07 273.116 
-0.33 -0.57 -0.193456 0.833376 0.00977034 0.00972393 2.73621e-07 0.00973827 1.71443e-07 272.767 
-0.27 -0.59 -0.397342 0.83388 0.00977959 0.00968924 2.42357e-05 0.00973403 1.71189e-07 273.053 
-0.31 -0.57 -0.143508 0.715494 0.00977617 0.00972565 8.04126e-06 0.00975462 1.71691e-07 272.831 
-0.27 -0.57 -0.54788 0.705413 0.00976633 0.0096883 2.93363e-05 0.00974536 1.71466e-07 272.929 
-0.31 -0.55 -0.00581997 0.886581 0.00978667 0.00970129 2.24722e-05 0.00974638 1.71249e-07 273.304 
-0.29 -0.55 -0.270025 0.734304 0.00977396 0.00969446 3.3457e-05 0.00973036 1.71088e-07 273.111 
-0.33 -0.53 -0.167906 1.15483 0.00974877 0.00971069 1.15995e-05 0.00972049 1.71083e-07 272.842 
-0.27 -0.55 -0.327111 0.581329 0.0097596 0.00967662 2.52743e-05 0.00972053 1.71423e-07 272.303 
-0.31 -0.53 -0.33528 0.645408 0.00975598 0.00968871 2.58721e-05 0.00972905 1.71061e-07 273.118 
-0.29 -0.53 -0.263879 0.862902 0.00978874 0.00969257 3.74826e-05 0.00974543 1.71306e-07 273.186 
-0.33 -0.51 -0.399436 0.874755 0.00977003 0.00969632 1.29531e-05 0.00973513 1.71336e-07 272.85 
-0.27 -0.53 -0.357794 0.652753 0.00978473 0.00968899 3.11711e-05 0.00974005 1.7127e-07 273.092 
-0.31 -0.51 -0.109271 0.76597 0.00975968 0.00968136 7.80748e-06 0.00971731 1.71109e-07 272.711 
-0.29 -0.51 -0.113177 0.7231 0.00975586 0.00967992 1.85472e-05 0.00972495 1.71076e-07 272.978 
-0.27 -0.51 -0.0687451 1.0077 0.00978519 0.00969531 3.81753e-05 0.00974862 1.71194e-07 273.454 
-0.33 -0.65 -0.636775 0.548679 0.00976918 0.0097101 1.56413e-05 0.0097445 1.71252e-07 273.246 
-0.31 -0.65 -0.483373 0.724669 0.00976915 0.00970636 1.08551e-05 0.00974622 1.71525e-07 272.859 
-0.29 -0.65 -0.473669 0.657954 0.00974688 0.00970497 1.86744e-05 0.00973602 1.71426e-07 272.731 
-0.33 -0.63 -0.38378 0.657889 0.00974611 0.00972414 2.12658e-05 0.00973419 1.7139e-07 272.738 
-0.27 -0.65 -0.647822 0.460152 0.00977061 0.00971773 1.11866e-05 0.00975459 1.71622e-07 272.94 
-0.31 -0.63 -0.589904 0.528365 0.00972422 0.00969063 1.04394e-05 0.00971903 1.70934e-07 273.04 
-0.25 -0.65 -0.705357 0.359504 0.00976126 0.00969714 1.0925e-05 0.00973728 1.71697e-07 272.337 
-0.29 -0.63 -0.878653 0.484142 0.00975744 0.00972524 3.237e-06 0.00973499 1.71407e-07 272.732 
-0.27 -0.63 -0.738045 0.581252 0.00973482 0.00970509 8.73527e-06 0.00973446 1.71602e-07 272.408 
-0.31 -0.61 -0.732016 0.752352 0.00978643 0.00973522 1.91346e-05 0.00976171 1.71589e-07 273.191 
-0.49 -0.67 0.227284 0.391302 0.00976579 0.00971357 1.10842e-06 0.00974202 1.71263e-07 273.159 
-0.47 -0.67 0.156811 -0.29624 0.00975689 0.009723 1.59404e-06 0.00974435 1.71527e-07 272.804 
-0.45 -0.67 0.16195 0.940119 0.00976157 0.00972854 2.97798e-06 0.00975526 1.71757e-07 272.744 