ITEM: TIMESTEP
903500
ITEM: NUMBER OF CELLS
5000
ITEM: BOX BOUNDS ss ss pp
-0.5 0.5
-1 1
-0.5 0.5
ITEM: CELLS xc yc f_U[*] f_V[*] f_Tau[1] f_Tau[2] f_Tau[3] f_Press[*] f_Mrho[*] f_Ttra[*] 
-0.49 -0.99 -0.0954966 0.105552 0.00975729 0.00972867 1.2694e-05 0.0097496 1.71701e-07 272.675 
-0.47 -0.99 -0.18547 -0.118453 0.00974472 0.00971473 8.52099e-07 0.00973408 1.71435e-07 272.663 
-0.45 -0.99 -0.227605 0.0764073 0.00974419 0.00972886 7.31981e-06 0.00974343 1.71484e-07 272.846 
-0.49 -0.97 -0.0478805 0.172496 0.00973806 0.00972443 9.7379e-06 0.0097345 1.71339e-07 272.827 
-0.43 -0.99 -0.311309 -0.0234518 0.00973245 0.00972614 3.38287e-06 0.00973612 1.71191e-07 273.108 
-0.47 -0.97 -0.121227 0.0102906 0.00974239 0.00971667 1.30203e-05 0.00973795 1.71286e-07 273.008 
-0.41 -0.99 -0.117321 -0.0726785 0.00972933 0.00972511 4.93766e-06 0.00972968 1.71302e-07 272.751 
-0.45 -0.97 -0.110725 0.0899876 0.00973877 0.00972922 2.17782e-06 0.0097384 1.71356e-07 272.909 
-0.49 -0.95 0.0570348 0.107937 0.00973353 0.00970641 -2.85913e-06 0.0097269 1.71174e-07 272.877 
-0.39 -0.99 -0.189061 0.0999079 0.00973059 0.00971734 -2.97008e-06 0.00971737 1.7084e-07 273.142 
-0.43 -0.97 0.0652791 -0.0491557 0.00974814 0.00973378 1.27913e-06 0.00974042 1.71356e-07 272.967 
-0.47 -0.95 0.0127796 0.170616 0.00974593 0.00972117 2.59588e-06 0.00973207 1.71235e-07 272.925 
-0.37 -0.99 -0.200952 -0.0454611 0.00973164 0.00972477 5.28173e-06 0.00972801 1.71155e-07 272.938 
-0.41 -0.97 -0.0506999 -0.173462 0.00974032 0.00972187 5.75077e-06 0.00972984 1.71098e-07 273.081 
-0.45 -0.95 0.121777 -0.216958 0.00975055 0.00974029 8.56567e-06 0.00974484 1.71526e-07 272.819 
-0.49 -0.93 -0.0571809 0.0946467 0.00976844 0.00971738 4.95615e-06 0.00974351 1.71406e-07 272.973 
-0.35 -0.99 -0.0474054 -0.143596 0.00971739 0.00969227 1.33521e-05 0.00970382 1.70793e-07 272.837 
-0.39 -0.97 0.228548 0.0378492 0.00973467 0.00971998 1.34504e-05 0.00973208 1.71258e-07 272.888 
-0.43 -0.95 0.138315 -0.0385113 0.00975095 0.00972233 9.1227e-06 0.00973632 1.71378e-07 272.817 
-0.47 -0.93 0.149926 -0.0299042 0.00976179 0.00971631 -1.94181e-07 0.0097379 1.713e-07 272.985 
-0.33 -0.99 -0.0283456 0.0401284 0.00973176 0.00972752 4.06124e-06 0.00972169 1.71117e-07 272.822 
-0.37 -0.97 0.14889 -0.0647272 0.0097317 0.00971885 2.59114e-06 0.00972819 1.7124e-07 272.808 
-0.41 -0.95 0.0258811 -0.185645 0.00974776 0.00972834 5.11231e-06 0.00973684 1.71393e-07 272.807 
-0.45 -0.93 0.0417189 -0.0146096 0.00975903 0.00973288 3.78142e-06 0.00974176 1.71522e-07 272.739 
-0.49 -0.91 0.147873 -0.00298827 0.00977341 0.00972336 1.28684e-05 0.00974621 1.71269e-07 273.267 
-0.35 -0.97 -0.0473636 -0.0992075 0.00973459 0.00970165 5.58609e-06 0.0097162 1.70982e-07 272.883 
-0.39 -0.95 -0.0485943 -0.0150169 0.00974103 0.00971798 3.31511e-06 0.00972727 1.71383e-07 272.555 
-0.43 -0.93 0.00159575 -0.0430447 0.00975089 0.00971693 5.91974e-06 0.00972622 1.71088e-07 272.995 
-0.47 -0.91 -0.206343 0.0190302 0.00976583 0.00971622 4.88937e-06 0.00974097 1.71423e-07 272.876 
-0.33 -0.97 -0.125276 -0.0673148 0.00973464 0.00972254 2.05638e-06 0.00973164 1.71354e-07 272.724 
-0.37 -0.95 -0.150983 0.122014 0.00974884 0.00971985 2.01898e-05 0.00974026 1.71323e-07 273.014 
-0.41 -0.93 -0.0159841 -0.107143 0.00975479 0.00973587 2.10803e-05 0.00973245 1.71363e-07 272.732 
-0.45 -0.91 -0.0461842 -0.0380622 0.00976294 0.00972544 1.32438e-05 0.00974552 1.71429e-07 272.993 
-0.49 -0.89 -0.15425 0.0974812 0.00977138 0.00972246 8.67115e-06 0.00974604 1.7148e-07 272.927 
-0.35 -0.95 -0.165838 -0.0973414 0.00975225 0.00970939 -1.0249e-06 0.00973305 1.71382e-07 272.718 
-0.39 -0.93 -0.206485 0.00335401 0.00974706 0.00971709 9.3685e-06 0.00972827 1.71372e-07 272.6 
-0.43 -0.91 -0.217993 -0.105844 0.00975072 0.00972457 1.47359e-05 0.00973365 1.71096e-07 273.191 
-0.47 -0.89 0.020244 0.0300575 0.00976086 0.00972014 1.6125e-05 0.0097429 1.71565e-07 272.703 
-0.37 -0.93 0.000930002 0.0361345 0.00974873 0.00972099 -3.56913e-06 0.00973775 1.71334e-07 272.926 
-0.41 -0.91 -0.209571 0.0683644 0.0097584 0.00972028 8.10777e-06 0.00973606 1.71384e-07 272.798 
-0.45 -0.89 -0.227219 0.00813424 0.0097576 0.00971951 6.09602e-06 0.00974362 1.71362e-07 273.047 
-0.49 -0.87 -0.0183794 0.12723 0.00973486 0.00970549 3.15606e-06 0.00971784 1.71065e-07 272.797 
-0.35 -0.93 -0.353018 0.109259 0.00975208 0.00971663 2.08377e-06 0.00972682 1.71414e-07 272.493 
-0.39 -0.91 -0.122009 -0.0860129 0.0097727 0.00973414 1.22753e-05 0.00975795 1.71655e-07 272.981 
-0.43 -0.89 -0.215195 -0.00773047 0.00977299 0.00973193 1.25106e-05 0.00975286 1.71398e-07 273.248 
-0.47 -0.87 0.0893161 0.0772617 0.00974946 0.00972507 5.85824e-06 0.00973686 1.71366e-07 272.85 
-0.37 -0.91 -0.212066 0.223457 0.0097584 0.00972863 2.26334e-06 0.0097424 1.71601e-07 272.632 
-0.41 -0.89 -0.156504 0.0105604 0.00976695 0.0097177 3.28618e-06 0.00974632 1.71547e-07 272.827 
-0.45 -0.87 -0.122549 0.0854841 0.00976098 0.009713 1.01531e-05 0.00974739 1.71441e-07 273.026 
-0.49 -0.85 0.0180185 0.133633 0.00974169 0.0097057 -3.22787e-06 0.00971571 1.71077e-07 272.717 
-0.35 -0.91 -0.0877746 0.208266 0.00975195 0.00971114 4.78731e-06 0.00972541 1.71247e-07 272.719 
-0.39 -0.89 -0.213284 0.0602258 0.00976654 0.00972453 1.14957e-05 0.00974309 1.71386e-07 272.993 
-0.43 -0.87 -0.11665 0.0139431 0.00975122 0.00973781 8.94731e-06 0.00975093 1.71559e-07 272.937 
-0.47 -0.85 -0.032828 0.192555 0.00974914 0.00972076 3.54536e-06 0.00973813 1.71333e-07 272.939 
-0.33 -0.91 -0.132126 -0.0281744 0.00975427 0.00970639 7.00035e-06 0.00973297 1.71324e-07 272.808 
-0.37 -0.89 -0.322566 0.0910726 0.00977553 0.00974153 1.78053e-05 0.00975825 1.71431e-07 273.345 
-0.41 -0.87 -0.244911 0.0798945 0.00975855 0.00972618 1.01407e-05 0.00974375 1.71564e-07 272.728 
-0.45 -0.85 -0.0406186 0.136616 0.00974543 0.00970696 8.50056e-06 0.00973071 1.71262e-07 272.843 
-0.35 -0.89 -0.299696 0.163658 0.00976731 0.0097055 9.4057e-06 0.00972763 1.71178e-07 272.891 
-0.39 -0.87 -0.13048 0.0426826 0.00976041 0.00971852 4.80246e-06 0.00973803 1.71566e-07 272.566 
-0.43 -0.85 -0.12613 0.023769 0.00976136 0.00973901 -9.47747e-07 0.00974508 1.71546e-07 272.795 
-0.37 -0.87 -0.264458 0.161836 0.00976812 0.00973258 9.76757e-06 0.00974712 1.7151e-07 272.908 
-0.41 -0.85 -0.137189 0.0401616 0.0097601 0.00972354 7.33131e-06 0.00974339 1.71561e-07 272.723 
-0.35 -0.87 -0.183095 0.20909 0.00977504 0.0097218 8.38259e-06 0.00974375 1.71416e-07 272.963 
-0.39 -0.85 -0.289059 0.307776 0.00976289 0.00972844 -9.10762e-08 0.00974637 1.71575e-07 272.784 
-0.33 -0.87 -0.511787 -0.0131054 0.00977167 0.00971701 9.03524e-06 0.00974349 1.71442e-07 272.915 
-0.37 -0.85 -0.368801 -0.0624659 0.00976095 0.00971872 6.92081e-06 0.00974271 1.7139e-07 272.976 
-0.35 -0.85 -0.343379 0.238554 0.00976135 0.0097227 1.15674e-05 0.00974009 1.71171e-07 273.252 
-0.33 -0.85 -0.451729 0.367928 0.0097543 0.00971704 1.39694e-05 0.00973094 1.71069e-07 273.158 
-0.31 -0.99 0.0309743 0.012705 0.00972731 0.00970039 1.21511e-05 0.00971071 1.71078e-07 272.575 
-0.29 -0.99 -0.296531 0.280373 0.00972794 0.00970844 9.71481e-06 0.00971577 1.71068e-07 272.733 
-0.27 -0.99 -0.275331 -0.227695 0.00975073 0.00972356 8.04552e-06 0.00973135 1.71089e-07 273.138 
-0.31 -0.97 -0.404962 0.0937942 0.00974596 0.00970956 2.11516e-06 0.00973429 1.7135e-07 272.804 
-0.29 -0.97 -0.338867 0.239309 0.00975636 0.00970915 5.38919e-06 0.00974414 1.71585e-07 272.706 
-0.33 -0.95 -0.135502 0.208015 0.00974796 0.00971655 2.66274e-06 0.00973249 1.71272e-07 272.877 
-0.27 -0.97 -0.209302 -0.212688 0.00974067 0.0097174 8.41645e-06 0.00973325 1.71419e-07 272.665 
-0.31 -0.95 -0.254188 0.217894 0.00973953 0.00971338 5.16521e-06 0.00972998 1.71311e-07 272.745 
-0.29 -0.95 -0.102816 0.0393317 0.00973076 0.00969002 6.80251e-06 0.00971159 1.71134e-07 272.511 
-0.33 -0.93 -0.351021 0.244444 0.0097529 0.00970723 5.05993e-06 0.00972977 1.7128e-07 272.789 
-0.27 -0.95 -0.384 -0.10845 0.00974307 0.00973787 4.25694e-06 0.0097341 1.71366e-07 272.773 
-0.31 -0.93 -0.185133 0.120129 0.00975368 0.00971019 9.49358e-06 0.00973228 1.71495e-07 272.518 
-0.29 -0.93 -0.284624 0.15286 0.00975723 0.00969456 6.29436e-06 0.00972578 1.71328e-07 272.601 
-0.27 -0.93 -0.127631 -0.0643207 0.00976855 0.00973499 -2.61815e-06 0.00975601 1.71606e-07 273.005 
-0.31 -0.91 -0.198986 0.363629 0.00976222 0.00970995 1.07365e-06 0.00973882 1.71461e-07 272.754 
-0.29 -0.91 -0.274624 -0.061774 0.00976046 0.00970333 -7.77469e-06 0.00972756 1.71319e-07 272.664 
-0.33 -0.89 -0.230889 -0.0398682 0.00976361 0.00971772 -2.72365e-07 0.00973359 1.71281e-07 272.895 
-0.27 -0.91 -0.131408 -0.0477856 0.00975863 0.00971783 1.64915e-06 0.00973064 1.71473e-07 272.505 
-0.31 -0.89 -0.126051 0.300533 0.00976664 0.00970631 -2.38328e-06 0.00973849 1.71528e-07 272.638 
-0.29 -0.89 -0.127843 -0.0546555 0.00976402 0.0097098 6.79226e-07 0.00973857 1.71329e-07 272.956 
-0.27 -0.89 -0.24047 0.0721609 0.00974641 0.00970457 1.13386e-05 0.00973386 1.71385e-07 272.737 
-0.31 -0.87 -0.491782 0.117221 0.00974985 0.00971074 7.09969e-06 0.00972739 1.71332e-07 272.639 
-0.29 -0.87 -0.256895 -0.0165698 0.00973559 0.00969687 1.1317e-05 0.00972232 1.71196e-07 272.714 
-0.27 -0.87 -0.313384 0.317577 0.00973863 0.00971402 1.02994e-05 0.00972737 1.71305e-07 272.681 
-0.31 -0.85 -0.444041 -0.0957628 0.00975471 0.00970852 2.07247e-05 0.00973215 1.71418e-07 272.636 
-0.29 -0.85 -0.299749 -0.0448406 0.00974902 0.00969895 1.69936e-05 0.00974118 1.71564e-07 272.656 
-0.27 -0.85 -0.409989 0.230433 0.00974648 0.00971254 4.74248e-06 0.00973402 1.7107e-07 273.242 
-0.25 -0.99 -0.21858 0.0806943 0.00975486 0.00974072 6.92908e-06 0.00974928 1.71396e-07 273.151 
-0.25 -0.97 -0.178677 0.199826 0.00974531 0.00974093 -3.12408e-06 0.00974527 1.71614e-07 272.691 
-0.25 -0.95 -0.391886 0.100181 0.00973709 0.0097379 4.29776e-06 0.00973874 1.71424e-07 272.811 
-0.25 -0.93 -0.0733311 0.0236517 0.00976143 0.00973705 1.15024e-05 0.00974863 1.71601e-07 272.805 
-0.25 -0.91 -0.188046 0.0454867 0.00975973 0.00972837 1.71575e-05 0.00974561 1.71556e-07 272.794 
-0.25 -0.89 -0.465726 0.0956705 0.00974967 0.00971794 1.28021e-05 0.00973331 1.71165e-07 273.071 
-0.25 -0.87 -0.446266 0.120591 0.00973078 0.00970755 1.04545e-05 0.0097266 1.71022e-07 273.111 
-0.25 -0.85 -0.339312 0.449345 0.00975982 0.00971211 5.68275e-06 0.00973855 1.7122e-07 273.13 
-0.25 -0.83 -0.462247 0.215939 0.00975906 0.00970091 2.00606e-06 0.00973897 1.71131e-07 273.284 
-0.33 -0.81 -0.00764865 0.180511 0.00975848 0.00970532 9.17779e-06 0.00972695 1.71254e-07 272.75 
-0.31 -0.81 -0.286769 0.330492 0.00977889 0.00971431 1.23555e-05 0.00974221 1.71215e-07 273.242 
-0.29 -0.81 -0.250052 0.135656 0.00977652 0.0097089 5.84273e-06 0.00974494 1.71287e-07 273.202 
-0.27 -0.81 -0.39093 0.168042 0.00977606 0.00972696 1.05919e-05 0.00975866 1.71581e-07 273.119 
-0.31 -0.79 -0.197627 0.130825 0.00976279 0.00970976 4.62758e-06 0.00973271 1.71397e-07 272.684 
-0.29 -0.79 -0.389956 0.528563 0.00975828 0.00970733 7.67102e-06 0.00972546 1.71263e-07 272.695 
-0.33 -0.77 -0.481237 0.294281 0.0097635 0.00972003 1.45149e-05 0.00973714 1.71296e-07 272.97 
-0.27 -0.79 -0.587528 0.234193 0.00975538 0.00971513 1.21509e-05 0.00973328 1.71398e-07 272.698 
-0.31 -0.77 -0.335881 0.190511 0.00975134 0.00969157 9.20971e-06 0.00971993 1.71169e-07 272.689 
-0.29 -0.77 -0.320055 0.529774 0.00976129 0.00971808 1.30139e-05 0.00973688 1.71488e-07 272.657 
-0.27 -0.77 -0.413158 0.20739 0.00975965 0.00970429 1.00905e-05 0.00973244 1.71419e-07 272.643 
-0.31 -0.75 -0.144062 0.422921 0.00975022 0.00970727 7.84894e-06 0.00973979 1.71493e-07 272.73 
-0.29 -0.75 -0.478481 0.578593 0.00974828 0.00970972 9.54958e-06 0.00973486 1.71412e-07 272.721 
-0.27 -0.75 -0.59193 0.606698 0.00975206 0.0097079 1.28182e-05 0.00972679 1.71203e-07 272.829 
-0.49 -0.83 -0.0475582 0.124391 0.00975331 0.00971215 4.28117e-06 0.00973297 1.71472e-07 272.573 
-0.47 -0.83 0.0128595 0.157881 0.00974897 0.00971113 1.03886e-06 0.00973078 1.71439e-07 272.564 
-0.45 -0.83 -0.0637272 0.197593 0.00975124 0.0097229 -3.9863e-06 0.00974309 1.71425e-07 272.931 
-0.49 -0.81 0.0575028 0.0183684 0.00975119 0.00971456 -5.06013e-06 0.0097387 1.7136e-07 272.911 
-0.43 -0.83 -0.154183 0.0774398 0.00974018 0.00971976 3.4305e-06 0.00972546 1.7133e-07 272.588 
-0.47 -0.81 -0.0505397 0.26287 0.00975494 0.00971531 -3.04574e-06 0.0097473 1.71529e-07 272.884 
-0.45 -0.81 -0.0657693 0.265138 0.00975988 0.00971892 3.85164e-06 0.0097418 1.71647e-07 272.541 
-0.49 -0.79 -0.102414 0.299115 0.00975042 0.00971329 4.6313e-06 0.0097349 1.71342e-07 272.833 
-0.43 -0.81 -0.227079 0.243214 0.00976562 0.00972143 -2.76404e-06 0.00974278 1.71824e-07 272.288 
-0.47 -0.79 -0.0615151 0.0597466 0.0097415 0.00971035 -4.16851e-06 0.0097324 1.71364e-07 272.729 
-0.41 -0.81 -0.4474 0.245029 0.00975559 0.00972329 9.79068e-06 0.00974447 1.71554e-07 272.764 
-0.45 -0.79 -0.0484328 0.409234 0.00974533 0.00972621 -7.23312e-06 0.00973883 1.71437e-07 272.793 
-0.49 -0.77 0.160814 0.181458 0.00973831 0.00971008 2.43304e-06 0.00972519 1.71119e-07 272.917 
-0.39 -0.81 -0.232586 0.0776378 0.00974839 0.00972196 1.20237e-05 0.00974775 1.71682e-07 272.653 
-0.43 -0.79 -0.297387 0.328718 0.00975439 0.00971603 -2.02687e-06 0.00973951 1.71498e-07 272.714 
-0.47 -0.77 -0.109441 0.277614 0.00975033 0.00972056 -1.61654e-06 0.00973767 1.71319e-07 272.947 
-0.37 -0.81 0.133395 0.255593 0.00975225 0.00971455 5.75608e-06 0.00973701 1.71622e-07 272.447 
-0.41 -0.79 -0.353484 0.354395 0.00976088 0.0097225 5.15619e-06 0.00974801 1.71779e-07 272.506 
-0.45 -0.77 -0.366214 0.610182 0.00974836 0.0097261 -4.98064e-06 0.00973683 1.71458e-07 272.702 
-0.35 -0.81 0.0897342 0.185807 0.00974406 0.00971371 5.38778e-06 0.0097337 1.71318e-07 272.839 
-0.39 -0.79 -0.219806 -0.179969 0.00976858 0.00971877 5.58061e-06 0.00975002 1.71783e-07 272.556 
-0.43 -0.77 -0.339172 0.480321 0.00973575 0.00970746 1.39568e-07 0.00972168 1.71278e-07 272.566 
-0.37 -0.79 -0.396975 0.221564 0.00977387 0.00971385 9.13001e-06 0.0097458 1.71577e-07 272.766 
-0.41 -0.77 -0.385715 -0.00705936 0.00973721 0.00971879 1.08601e-06 0.00973241 1.71509e-07 272.499 
-0.35 -0.79 -0.304773 0.123063 0.00977339 0.00971506 1.22691e-05 0.00974219 1.71693e-07 272.479 
-0.39 -0.77 -0.12535 0.0836131 0.00973781 0.00972117 2.23579e-06 0.00974107 1.71544e-07 272.685 
-0.43 -0.75 0.157697 0.313961 0.00976103 0.00971224 -3.90269e-06 0.0097345 1.71346e-07 272.815 
-0.33 -0.79 -0.291637 0.413046 0.00976519 0.00971013 -4.67594e-07 0.0097269 1.71492e-07 272.371 
-0.37 -0.77 -0.100997 0.206501 0.00974921 0.00970978 -2.688e-06 0.00973307 1.71469e-07 272.581 
-0.41 -0.75 0.0648975 0.276196 0.00976504 0.00971366 2.74756e-06 0.0097485 1.71642e-07 272.738 
-0.35 -0.77 -0.328417 0.476969 0.00976468 0.00971635 2.95571e-06 0.00974291 1.71354e-07 273.04 
-0.39 -0.75 -0.260218 0.145379 0.00976771 0.00972301 2.04523e-06 0.00974604 1.71482e-07 272.923 
-0.49 -0.75 -0.128654 0.155977 0.00974245 0.00972364 -2.42821e-06 0.00973992 1.71085e-07 273.384 
-0.47 -0.75 -0.0354687 0.36028 0.00974831 0.00972751 -1.05942e-05 0.00973214 1.71156e-07 273.052 
-0.45 -0.75 0.00213868 0.711418 0.00975308 0.00971224 -5.84028e-06 0.00972452 1.71282e-07 272.638 
-0.49 -0.73 -0.0200177 0.325834 0.00978402 0.00972641 2.96976e-06 0.00975653 1.71326e-07 273.465 
-0.47 -0.73 -0.261845 0.368339 0.00977005 0.00973833 1.28663e-06 0.00975323 1.7133e-07 273.367 
-0.45 -0.73 -0.171156 0.401845 0.00976281 0.00970935 -1.1149e-05 0.00973708 1.71515e-07 272.62 
-0.49 -0.71 -0.061842 0.440451 0.00977986 0.00972494 2.26202e-06 0.00975372 1.71569e-07 273 
-0.43 -0.73 0.0171684 0.446604 0.00975778 0.00971236 -3.65469e-06 0.00973697 1.71461e-07 272.703 
-0.47 -0.71 -0.0797805 0.555702 0.00978701 0.00973649 1.96088e-06 0.0097612 1.71714e-07 272.979 
-0.37 -0.75 -0.35504 0.148909 0.00974558 0.00970964 6.84042e-06 0.00972596 1.71368e-07 272.541 
-0.41 -0.73 0.0494208 0.320429 0.00975925 0.0097049 -6.22001e-06 0.00973992 1.71572e-07 272.608 
-0.45 -0.71 0.156284 0.0521024 0.00977553 0.00972 2.9078e-06 0.00974825 1.71542e-07 272.889 
-0.49 -0.69 -0.0318559 0.460614 0.00977266 0.00971704 -1.19456e-05 0.0097482 1.71543e-07 272.886 
-0.35 -0.75 -0.0389549 0.354 0.00973588 0.00970837 5.19545e-06 0.00972866 1.71357e-07 272.635 
-0.39 -0.73 0.0570108 0.20755 0.00975721 0.00971145 1.36295e-05 0.00973767 1.71318e-07 272.95 
-0.43 -0.71 -0.0819123 0.390348 0.00976468 0.00971322 1.96322e-06 0.0097443 1.71568e-07 272.738 
-0.47 -0.69 0.22949 0.373413 0.00977117 0.00972424 4.87725e-06 0.0097521 1.71517e-07 273.037 
-0.37 -0.73 0.0245929 0.250457 0.00976526 0.00971792 1.11132e-05 0.00974663 1.71619e-07 272.722 
-0.41 -0.71 0.199658 0.432197 0.0097619 0.00968836 2.79531e-07 0.00973254 1.71635e-07 272.302 
-0.45 -0.69 -0.123504 0.346007 0.00978672 0.0097225 1.09844e-05 0.00975745 1.71794e-07 272.747 
-0.35 -0.73 -0.37318 0.354036 0.00975836 0.00970865 7.15751e-06 0.00974326 1.71486e-07 272.839 
-0.39 -0.71 0.0566926 0.181585 0.00976778 0.00971191 2.42689e-06 0.00974296 1.71576e-07 272.687 
-0.43 -0.69 -0.221774 0.442943 0.00978714 0.00971916 7.86623e-06 0.00975905 1.7202e-07 272.432 
-0.33 -0.73 -0.42551 0.220354 0.00976058 0.00970191 1.05002e-05 0.0097379 1.71604e-07 272.501 
-0.37 -0.71 0.0950732 0.344673 0.00976106 0.00971508 1.81344e-05 0.00974782 1.71691e-07 272.64 
-0.41 -0.69 -0.184826 0.123643 0.00977418 0.00969962 7.37843e-07 0.00973815 1.71676e-07 272.393 
-0.35 -0.71 -0.153309 0.651608 0.0097597 0.00970927 1.95959e-06 0.00975554 1.71793e-07 272.694 
-0.39 -0.69 -0.105014 0.268126 0.00975926 0.00969615 1.1987e-05 0.00972984 1.71479e-07 272.474 
-0.37 -0.69 -0.164751 0.477101 0.009771 0.00971206 9.34116e-06 0.0097472 1.71529e-07 272.881 
-0.35 -0.69 -0.165582 0.75617 0.00977163 0.00971533 1.71963e-05 0.00974622 1.71528e-07 272.855 
-0.35 -0.67 -0.212497 0.760922 0.00977752 0.00973048 1.05557e-05 0.00975184 1.7151e-07 273.042 
-0.33 -0.67 -0.296801 0.787243 0.00975796 0.0097009 2.9643e-06 0.00974577 1.71618e-07 272.699 
-0.33 -0.75 0.105711 0.25154 0.0097376 0.00970555 8.20578e-06 0.00973011 1.71385e-07 272.63 
-0.31 -0.73 -0.409901 0.65587 0.00975751 0.00971462 4.29893e-06 0.00973926 1.71453e-07 272.779 
-0.29 -0.73 -0.391466 0.757208 0.00976281 0.00969871 4.21631e-06 0.00973615 1.71325e-07 272.896 
-0.33 -0.71 -0.413315 0.224237 0.00975718 0.00970526 1.01113e-05 0.00974222 1.71656e-07 272.54 
-0.27 -0.73 -0.495246 0.580458 0.00976472 0.00971536 8.75542e-06 0.00974329 1.71371e-07 273.022 
-0.31 -0.71 -0.41216 0.657906 0.00975778 0.00971874 8.80464e-06 0.00974445 1.7164e-07 272.627 
-0.29 -0.71 -0.344719 0.674472 0.00975068 0.00969341 8.3266e-06 0.0097286 1.71195e-07 272.892 
-0.33 -0.69 -0.2506 0.506102 0.00978114 0.00970249 -4.71047e-06 0.0097498 1.7177e-07 272.57 
-0.27 -0.71 -0.29046 0.57968 0.00975282 0.00970846 4.97102e-06 0.00973102 1.71207e-07 272.94 
-0.31 -0.69 -0.487761 0.587776 0.00978277 0.00971564 1.17502e-05 0.00975889 1.7187e-07 272.665 
-0.29 -0.69 -0.461116 0.595481 0.00977791 0.00970023 1.333e-05 0.00974233 1.71574e-07 272.673 
-0.27 -0.69 -0.291678 0.663803 0.00977974 0.00971189 3.51403e-06 0.00974707 1.71322e-07 273.206 
-0.31 -0.67 -0.308636 0.716964 0.00975784 0.00970075 2.94053e-06 0.0097333 1.71516e-07 272.513 
-0.29 -0.67 -0.357396 0.449803 0.00976906 0.0097072 9.66503e-06 0.00974397 1.71472e-07 272.881 
-0.41 -0.83 -0.0983959 0.17883 0.00975197 0.00972599 -7.02534e-07 0.00974023 1.7154e-07 272.668 
-0.39 -0.83 -0.280209 0.375125 0.00975155 0.00972871 7.1938e-06 0.00973769 1.71425e-07 272.78 
-0.37 -0.83 -0.330116 0.260122 0.00974285 0.00971236 9.31665e-06 0.00973311 1.714e-07 272.691 
-0.35 -0.83 -0.420663 0.140484 0.0097504 0.00971705 1.46631e-05 0.00973245 1.71374e-07 272.715 
-0.33 -0.83 -0.173065 0.246961 0.00975275 0.00971476 1.68578e-05 0.00973179 1.71176e-07 273.012 
-0.31 -0.83 -0.168153 -0.208186 0.00974811 0.00969818 1.39048e-05 0.00973344 1.71366e-07 272.755 
-0.29 -0.83 -0.53055 0.157743 0.00976436 0.00971563 1.46229e-05 0.00974958 1.71363e-07 273.212 
-0.27 -0.83 -0.546076 0.266387 0.00976678 0.00972427 6.01257e-06 0.00975236 1.7133e-07 273.343 
-0.27 -0.67 -0.447751 0.590357 0.00975956 0.00971832 1.54248e-05 0.00974799 1.71518e-07 272.919 
-0.25 -0.67 -0.307969 0.685664 0.00976772 0.00971993 1.82739e-07 0.00975708 1.71493e-07 273.215 
-0.25 -0.81 -0.531957 0.250016 0.00976584 0.00971105 4.18009e-06 0.00974539 1.71461e-07 272.938 
-0.25 -0.79 -0.487859 0.207467 0.00976486 0.00972732 1.75057e-05 0.00974708 1.71407e-07 273.071 
-0.35 -0.55 -0.209573 0.760353 0.00978839 0.00970765 7.77364e-06 0.00975097 1.71599e-07 272.875 
-0.39 -0.53 -0.0606177 1.07601 0.00978166 0.00969087 2.4055e-06 0.00974917 1.71596e-07 272.829 
-0.37 -0.57 -0.316792 0.686632 0.00978597 0.00969682 3.93412e-06 0.00975214 1.71631e-07 272.856 
-0.41 -0.55 -0.0188218 0.891262 0.00976224 0.0097057 -2.61185e-06 0.00974082 1.71496e-07 272.755 
-0.45 -0.53 0.0639175 0.612188 0.00977329 0.00969772 -7.08292e-06 0.00973151 1.71459e-07 272.552 
-0.35 -0.57 -0.224583 0.632031 0.00978176 0.00970055 2.13051e-05 0.00974535 1.71522e-07 272.84 
-0.39 -0.55 -0.112491 0.957881 0.00976374 0.00969056 5.04615e-06 0.00974496 1.71403e-07 273.018 
-0.43 -0.53 -0.146052 0.672005 0.00977828 0.00969766 3.44512e-06 0.00973623 1.71603e-07 272.456 
-0.47 -0.51 -0.203671 0.643276 0.00976648 0.00969123 -2.92108e-06 0.00972754 1.71481e-07 272.406 
-0.37 -0.55 -0.168966 0.700774 0.00975987 0.00967814 4.18777e-06 0.00973246 1.71119e-07 273.12 
-0.41 -0.53 -0.189661 0.844121 0.00978272 0.0097075 -2.11253e-06 0.00974957 1.71624e-07 272.795 
-0.45 -0.51 -0.356428 0.727368 0.0097644 0.00969417 3.90463e-06 0.00973287 1.71503e-07 272.521 
-0.37 -0.53 -0.152391 0.830241 0.00978513 0.0096871 -7.18319e-07 0.00973908 1.71454e-07 272.772 
-0.41 -0.51 -0.309681 0.831087 0.009755 0.00970351 2.61792e-07 0.00972882 1.7137e-07 272.619 
-0.35 -0.53 -0.395058 0.849353 0.00976953 0.00969467 8.60807e-06 0.00973157 1.71411e-07 272.631 
-0.39 -0.51 -0.424578 0.851027 0.00976011 0.00968842 7.08738e-07 0.00972709 1.71388e-07 272.542 
-0.37 -0.51 -0.309836 1.01445 0.00975599 0.00967827 9.08658e-06 0.00972026 1.71233e-07 272.597 
-0.35 -0.51 -0.394862 0.846565 0.00975463 0.00969311 1.18376e-05 0.00972123 1.71262e-07 272.578 
-0.49 -0.65 0.133875 0.303598 0.0097686 0.00971924 1.00022e-05 0.0097496 1.71545e-07 272.923 
-0.47 -0.65 -0.165614 0.476009 0.00976659 0.00972114 5.85079e-06 0.009751 1.71646e-07 272.801 
-0.45 -0.65 -0.118173 0.595742 0.00976066 0.00972546 4.484e-06 0.00975073 1.71828e-07 272.504 
-0.49 -0.63 -0.12961 0.334285 0.00975035 0.00972004 2.9411e-06 0.00974625 1.71797e-07 272.428 
-0.43 -0.65 0.114222 0.740376 0.00974516 0.00969684 2.83758e-06 0.00972787 1.71359e-07 272.609 
-0.47 -0.63 -0.109863 0.600755 0.00975768 0.00971901 -1.81764e-06 0.00974553 1.71777e-07 272.44 
-0.41 -0.65 -0.0179014 0.34994 0.00976294 0.00970617 1.14671e-05 0.00974054 1.71507e-07 272.73 
-0.45 -0.63 -0.179285 0.550202 0.00976575 0.00971987 9.22583e-06 0.00974618 1.71672e-07 272.626 
-0.49 -0.61 -0.0406306 0.5192 0.00976853 0.00971957 -1.00079e-05 0.00975097 1.71764e-07 272.613 
-0.39 -0.65 -0.118496 0.252663 0.00976144 0.00971498 6.71535e-06 0.00974263 1.71372e-07 273.002 
-0.43 -0.63 -0.337382 0.64064 0.00977525 0.00970912 6.55895e-06 0.00973997 1.71309e-07 273.028 
-0.47 -0.61 -0.291858 0.636351 0.00976718 0.00971574 3.83609e-06 0.00974738 1.71696e-07 272.62 
-0.37 -0.65 -0.560066 0.561397 0.00975748 0.00969299 -5.61781e-07 0.00972884 1.71219e-07 272.859 
-0.41 -0.63 -0.344928 0.436625 0.00976419 0.00969492 3.7389e-06 0.00973189 1.71328e-07 272.771 
-0.45 -0.61 -0.330074 0.700185 0.0097641 0.00971653 -8.03201e-06 0.00974453 1.71477e-07 272.889 
-0.49 -0.59 -0.0822067 0.571318 0.00977112 0.00970193 -8.58311e-06 0.00974398 1.71552e-07 272.754 
-0.35 -0.65 -0.561154 0.514618 0.00976914 0.00973136 6.42367e-06 0.00975209 1.71692e-07 272.758 
-0.39 -0.63 -0.441077 0.547254 0.00977594 0.0097177 9.07059e-06 0.00974164 1.71502e-07 272.768 
-0.43 -0.61 -0.12912 0.76541 0.00976939 0.00970114 6.67786e-06 0.00973678 1.7121e-07 273.097 
-0.47 -0.59 -0.00482517 0.775999 0.00977926 0.00971965 -5.95263e-06 0.00975257 1.71747e-07 272.684 
-0.37 -0.63 -0.427567 0.623315 0.00976213 0.00969541 6.66265e-06 0.00973169 1.71441e-07 272.586 
-0.41 -0.61 -0.34447 0.443408 0.00977599 0.00971484 5.66893e-06 0.00974214 1.71293e-07 273.115 
-0.45 -0.59 0.0924695 0.380254 0.00978217 0.00971152 -1.45783e-06 0.00975539 1.71687e-07 272.859 
-0.49 -0.57 -0.038202 0.513797 0.00977722 0.00969774 -1.319e-05 0.00973525 1.71355e-07 272.823 
-0.35 -0.63 -0.473108 0.479484 0.00975777 0.00971874 7.10688e-06 0.00973749 1.71425e-07 272.775 
-0.39 -0.61 -0.329345 0.47444 0.00977917 0.00969874 7.52319e-07 0.00973699 1.71232e-07 273.068 
-0.43 -0.59 0.0519848 0.860179 0.00977718 0.00970193 2.80439e-06 0.00974771 1.71711e-07 272.606 
-0.47 -0.57 -0.00810278 0.63879 0.00977569 0.00972137 -7.82919e-06 0.0097455 1.71658e-07 272.629 
-0.37 -0.61 -0.315965 0.583568 0.00978336 0.00970601 1.09364e-05 0.00974552 1.71448e-07 272.962 
-0.41 -0.59 0.117849 0.535387 0.00978105 0.0097108 -3.81838e-06 0.00974544 1.71484e-07 272.902 
-0.45 -0.57 0.0862966 0.50345 0.00977516 0.00969796 4.95834e-07 0.00973915 1.71378e-07 272.896 
-0.49 -0.55 0.0155488 0.550497 0.00976269 0.0097009 -1.23346e-05 0.0097359 1.71444e-07 272.7 
-0.35 -0.61 -0.216629 0.521517 0.0097793 0.00970522 7.37478e-06 0.00973854 1.71358e-07 272.91 
-0.39 -0.59 -0.0883777 0.67622 0.00977444 0.0096817 6.41335e-06 0.00973337 1.71261e-07 272.919 
-0.43 -0.57 0.112415 0.748879 0.00978025 0.00970356 -5.19353e-06 0.00974848 1.71409e-07 273.108 
-0.47 -0.55 0.00100221 0.730265 0.00977543 0.00970297 -7.39891e-06 0.00974624 1.71733e-07 272.53 
-0.33 -0.61 -0.5506 0.649014 0.00977921 0.009702 1.99763e-05 0.0097479 1.71423e-07 273.069 
-0.37 -0.59 -0.14179 0.473412 0.00977494 0.00971641 1.44106e-05 0.00974437 1.71477e-07 272.884 
-0.41 -0.57 0.00688314 0.761019 0.0097816 0.00970543 1.34547e-05 0.00974575 1.71554e-07 272.799 
-0.45 -0.55 -0.152509 0.41605 0.00977438 0.00970142 -2.34354e-06 0.00973318 1.71442e-07 272.627 
-0.49 -0.53 0.0186596 0.567716 0.00977664 0.00970032 -5.72984e-06 0.00974115 1.7159e-07 272.614 
-0.35 -0.59 -0.393003 0.734129 0.00977027 0.00969504 1.25642e-05 0.00973123 1.71474e-07 272.521 
-0.39 -0.57 -0.272988 0.838471 0.00978173 0.00968754 -7.8526e-07 0.00974471 1.71431e-07 272.967 
-0.43 -0.55 -0.0428535 0.66817 0.0097683 0.00969856 5.16098e-06 0.00974236 1.71466e-07 272.845 
-0.47 -0.53 0.0341653 0.609408 0.00976924 0.00969517 -5.52857e-06 0.00973379 1.71524e-07 272.513 
-0.29 -0.57 -0.535973 0.54683 0.00976958 0.00969611 2.15269e-05 0.00973679 1.71326e-07 272.911 
-0.33 -0.55 -0.532982 0.985353 0.00979819 0.0097157 8.45437e-06 0.00975041 1.71524e-07 272.979 
-0.29 -0.61 -0.360908 0.696435 0.00976236 0.00970655 1.81212e-06 0.00973709 1.71491e-07 272.658 
-0.33 -0.59 -0.355843 0.9112 0.00977102 0.00970215 1.31109e-05 0.00973807 1.71305e-07 272.982 
-0.27 -0.61 -0.414165 0.470728 0.00976598 0.00970421 1.66282e-05 0.00973621 1.71394e-07 272.788 
-0.31 -0.59 -0.630064 0.834744 0.00977486 0.00971834 1.29967e-05 0.00974612 1.71497e-07 272.902 
-0.29 -0.59 -0.377563 0.345672 0.00978644 0.0097071 1.29531e-05 0.00974984 1.71529e-07 272.955 
-0.33 -0.57 -0.250939 1.00289 0.00977579 0.00970608 9.25707e-06 0.0097374 1.71366e-07 272.865 
-0.27 -0.59 -0.271365 0.722119 0.00977163 0.0096887 1.64785e-05 0.00973195 1.71243e-07 272.909 
-0.31 -0.57 -0.199981 0.796109 0.00977948 0.00971479 2.32061e-06 0.00974758 1.71583e-07 272.805 
-0.27 -0.57 -0.727873 0.718223 0.00976444 0.00969444 2.87833e-05 0.0097451 1.71571e-07 272.755 
-0.31 -0.55 -0.267843 1.00491 0.00977672 0.00969993 2.49013e-05 0.0097429 1.71452e-07 272.883 
-0.29 -0.55 -0.411774 0.679369 0.00976111 0.00968227 2.55173e-05 0.00972653 1.71172e-07 272.87 
-0.33 -0.53 -0.205948 1.09118 0.00976436 0.00969667 1.64194e-05 0.00972998 1.71237e-07 272.863 
-0.27 -0.55 -0.408113 0.689621 0.00976186 0.00970289 1.88238e-05 0.00972971 1.71331e-07 272.705 
-0.31 -0.53 -0.323874 0.781526 0.00976536 0.00969978 2.94072e-05 0.00973968 1.7153e-07 272.669 
-0.29 -0.53 -0.314761 0.770833 0.00978472 0.00969024 2.6548e-05 0.00974671 1.71482e-07 272.941 
-0.33 -0.51 -0.343234 0.879513 0.00974761 0.00968144 2.28782e-05 0.00971828 1.71029e-07 272.865 
-0.27 -0.53 -0.539202 0.877656 0.00977616 0.00970315 2.70804e-05 0.00973979 1.71317e-07 273.01 
-0.31 -0.51 -0.122503 0.838425 0.00974949 0.0096989 2.09311e-05 0.00972269 1.71154e-07 272.79 
-0.29 -0.51 -0.165933 0.923604 0.00974326 0.00968766 2.20415e-05 0.009728 1.71135e-07 272.97 
-0.27 -0.51 -0.282975 1.19119 0.00975853 0.00970251 2.77366e-05 0.00973679 1.71183e-07 273.14 
-0.33 -0.65 -0.385988 0.550776 0.00977774 0.00970405 1.41691e-05 0.0097519 1.71522e-07 273.024 
-0.31 -0.65 -0.250527 0.810838 0.00977361 0.00970481 9.59783e-06 0.00974723 1.71527e-07 272.885 
-0.29 -0.65 -0.470832 0.655899 0.00975818 0.00969066 1.04583e-05 0.00972981 1.71256e-07 272.828 
-0.33 -0.63 -0.364779 0.594999 0.00974985 0.00970813 9.81374e-06 0.00973995 1.71565e-07 272.621 
-0.27 -0.65 -0.431448 0.518716 0.00977407 0.00972972 6.84086e-06 0.00975411 1.7168e-07 272.834 
-0.31 -0.63 -0.679682 0.781509 0.00974525 0.00969415 1.09666e-05 0.00972912 1.71192e-07 272.91 
-0.25 -0.65 -0.536141 0.520459 0.00976407 0.00971482 7.75717e-06 0.00974708 1.71681e-07 272.635 
-0.29 -0.63 -0.682213 0.512581 0.00976425 0.00971003 6.33283e-06 0.00974086 1.7157e-07 272.638 
-0.27 -0.63 -0.58848 0.581428 0.009752 0.0097211 7.29523e-06 0.00974188 1.71601e-07 272.617 
-0.31 -0.61 -0.478186 0.808352 0.00977993 0.00971241 1.22159e-05 0.00975158 1.71619e-07 272.86 
-0.49 -0.67 0.0280984 0.41505 0.00976716 0.00971252 2.21912e-07 0.00974502 1.71393e-07 273.035 
-0.47 -0.67 0.0489266 0.196176 0.00976542 0.00972316 -3.87344e-06 0.00974056 1.7157e-07 272.63 
-0.45 -0.67 0.0874298 0.799856 0.00975929 0.00971755 1.99235e-06 0.00973957 1.71607e-07 272.543 
-0.43 -0.67 -0.189688 0.450853 0.00977226 0.0097191 8.83983e-06 0.00974455 1.71677e-07 272.572 