ITEM: TIMESTEP
1011500
ITEM: NUMBER OF CELLS
5000
ITEM: BOX BOUNDS ss ss pp
-0.5 0.5
-1 1
-0.5 0.5
ITEM: CELLS xc yc f_U[*] f_V[*] f_Tau[1] f_Tau[2] f_Tau[3] f_Press[*] f_Mrho[*] f_Ttra[*] 
-0.49 -0.99 -0.0429811 0.135508 0.00976419 0.00973663 1.01559e-05 0.00975092 1.71587e-07 272.893 
-0.47 -0.99 -0.199944 0.00931886 0.00974996 0.00972013 8.53986e-06 0.00973945 1.71464e-07 272.767 
-0.45 -0.99 -0.249595 0.0112644 0.00975129 0.00973314 6.56037e-06 0.00974612 1.7147e-07 272.943 
-0.49 -0.97 -0.0855047 0.199655 0.0097463 0.00972687 1.15042e-05 0.00973589 1.71379e-07 272.803 
-0.43 -0.99 -0.285563 -0.0564836 0.00974251 0.00972693 5.51049e-06 0.00974103 1.7137e-07 272.961 
-0.47 -0.97 -0.112868 0.1196 0.00974616 0.00972175 1.54325e-05 0.00973886 1.71416e-07 272.827 
-0.41 -0.99 -0.140053 -0.0745944 0.00973726 0.0097285 6.17937e-07 0.00973701 1.71319e-07 272.93 
-0.45 -0.97 -0.0805316 -0.0186243 0.00974509 0.00973666 7.42663e-06 0.00974575 1.71448e-07 272.968 
-0.49 -0.95 0.0574682 0.169521 0.00973316 0.00971254 3.95832e-06 0.00972988 1.71211e-07 272.901 
-0.39 -0.99 -0.172639 0.0961568 0.00974077 0.00973226 -6.1269e-07 0.00973787 1.71158e-07 273.211 
-0.43 -0.97 0.0261012 0.0775873 0.00975003 0.00973137 3.77172e-06 0.00974713 1.71437e-07 273.026 
-0.47 -0.95 0.105575 0.0939754 0.00975083 0.00972903 1.25402e-06 0.0097391 1.71374e-07 272.901 
-0.37 -0.99 -0.22469 -0.0539124 0.00973985 0.00972819 1.21102e-05 0.00973706 1.71284e-07 272.986 
-0.41 -0.97 -0.16163 -0.159106 0.00974412 0.00973033 5.77318e-06 0.00973959 1.7138e-07 272.904 
-0.45 -0.95 0.208281 -0.135058 0.00975938 0.00974154 8.13216e-06 0.00975699 1.71634e-07 272.987 
-0.49 -0.93 0.0355066 0.0763847 0.0097685 0.00972227 6.68865e-07 0.00974721 1.71469e-07 272.976 
-0.35 -0.99 -0.0738792 -0.107834 0.00973006 0.00970485 7.9934e-06 0.00971572 1.70977e-07 272.878 
-0.39 -0.97 -0.0779024 0.0480212 0.00973851 0.00972592 8.38094e-06 0.00973793 1.71395e-07 272.835 
-0.43 -0.95 0.154635 0.0607069 0.00975715 0.00972836 9.75052e-06 0.00974904 1.71571e-07 272.865 
-0.47 -0.93 0.0478972 0.028913 0.00976144 0.00972606 1.08189e-06 0.0097448 1.71511e-07 272.841 
-0.33 -0.99 -0.0273228 0.0520621 0.00973438 0.00972709 5.74624e-06 0.00972862 1.71248e-07 272.807 
-0.37 -0.97 0.0366853 -0.106859 0.0097361 0.00972631 6.84959e-06 0.00973814 1.7133e-07 272.944 
-0.41 -0.95 0.0544206 0.116747 0.00975618 0.00973221 5.14923e-06 0.00974656 1.71551e-07 272.827 
-0.45 -0.93 -0.0877055 0.0236138 0.00975931 0.00973306 5.25435e-06 0.00974723 1.7154e-07 272.863 
-0.49 -0.91 0.000435965 0.173811 0.00977571 0.00972827 1.11491e-05 0.00975354 1.71484e-07 273.13 
-0.35 -0.97 -0.0342077 -0.0861219 0.00973755 0.00971206 9.88295e-06 0.00973045 1.71176e-07 272.973 
-0.39 -0.95 -0.125395 -0.0761772 0.00975234 0.00972489 8.11608e-06 0.00973973 1.71514e-07 272.695 
-0.43 -0.93 -0.149393 0.0579826 0.00975962 0.0097313 4.67688e-06 0.00974187 1.71461e-07 272.84 
-0.47 -0.91 -0.222011 0.0263864 0.00976644 0.00972766 6.31385e-06 0.00974485 1.71514e-07 272.839 
-0.33 -0.97 -0.157593 0.0123747 0.00974099 0.00972338 4.39008e-06 0.00973855 1.7141e-07 272.828 
-0.37 -0.95 -0.15774 -0.0899983 0.00975599 0.00972024 1.33097e-05 0.00974297 1.7135e-07 273.047 
-0.41 -0.93 -0.103293 0.114121 0.00975838 0.00972893 1.35207e-05 0.00973758 1.71344e-07 272.906 
-0.45 -0.91 -0.0759834 0.0160912 0.00976378 0.00972578 5.16537e-06 0.00974962 1.71548e-07 272.919 
-0.49 -0.89 -0.036923 0.138976 0.00976716 0.0097271 8.04928e-06 0.00974826 1.71432e-07 273.064 
-0.35 -0.95 -0.133556 -0.0333689 0.00975738 0.00972119 5.08898e-06 0.00974349 1.7144e-07 272.917 
-0.39 -0.93 0.00492412 -0.0705139 0.00975566 0.0097268 8.51095e-06 0.00974358 1.71611e-07 272.648 
-0.43 -0.91 -0.169497 0.0667015 0.00975854 0.00973471 1.02122e-05 0.00974317 1.71354e-07 273.046 
-0.47 -0.89 0.120189 0.121606 0.00976695 0.00973125 1.07005e-05 0.00974858 1.71617e-07 272.779 
-0.37 -0.93 -0.0602382 0.0210963 0.00975732 0.00972103 3.38007e-06 0.00974482 1.71411e-07 273.002 
-0.41 -0.91 -0.0989771 -0.0153893 0.00976751 0.00972443 5.81878e-06 0.00974506 1.71442e-07 272.96 
-0.45 -0.89 -0.12025 0.176417 0.00976099 0.00972217 5.30189e-06 0.0097443 1.71462e-07 272.906 
-0.49 -0.87 -0.0122353 0.158011 0.00974717 0.00971461 5.42374e-07 0.00973085 1.71311e-07 272.769 
-0.35 -0.93 -0.376439 0.0208714 0.00975721 0.00972235 9.5371e-06 0.00973927 1.71464e-07 272.763 
-0.39 -0.91 -0.139007 -0.0355303 0.00977076 0.009732 1.33318e-05 0.00975401 1.71726e-07 272.757 
-0.43 -0.89 -0.159255 -0.00467732 0.00976837 0.00974086 5.66433e-06 0.00975404 1.71518e-07 273.089 
-0.47 -0.87 0.0732698 0.157697 0.00975438 0.00973015 7.95754e-06 0.00973761 1.71336e-07 272.919 
-0.37 -0.91 -0.227537 0.193005 0.0097561 0.00972051 1.20858e-05 0.0097381 1.71583e-07 272.54 
-0.41 -0.89 -0.148759 -0.0127713 0.00976062 0.0097184 4.1606e-06 0.00974333 1.71501e-07 272.816 
-0.45 -0.87 -0.0887015 0.185517 0.00976329 0.00972335 8.36238e-06 0.00974959 1.71493e-07 273.005 
-0.49 -0.85 -0.0446796 0.159566 0.00975373 0.00971374 2.22627e-07 0.00973198 1.71226e-07 272.936 
-0.35 -0.91 -0.123988 0.136588 0.00975009 0.00972297 5.76418e-06 0.00973683 1.71437e-07 272.736 
-0.39 -0.89 -0.109056 0.149283 0.00975668 0.00971938 1.43515e-05 0.00974649 1.71544e-07 272.837 
-0.43 -0.87 -0.0995347 0.120131 0.00975038 0.00974151 1.07515e-05 0.00975017 1.71566e-07 272.905 
-0.47 -0.85 -0.193687 0.254434 0.00975699 0.00972516 4.77439e-07 0.00974463 1.71368e-07 273.064 
-0.33 -0.91 -0.182686 -0.0679588 0.00975085 0.00971671 1.29304e-05 0.00973761 1.71419e-07 272.787 
-0.37 -0.89 -0.233051 0.06966 0.00976368 0.00973322 1.8824e-05 0.00975537 1.71657e-07 272.906 
-0.41 -0.87 -0.237184 -0.0363963 0.0097535 0.00972019 8.33862e-06 0.00973792 1.71484e-07 272.692 
-0.45 -0.85 -0.123479 0.188655 0.00975729 0.00971941 8.49217e-06 0.0097437 1.71398e-07 272.991 
-0.35 -0.89 -0.295699 0.169273 0.00976549 0.00972088 1.03499e-05 0.00974058 1.71458e-07 272.807 
-0.39 -0.87 -0.296975 0.131828 0.00976117 0.00971319 6.7955e-06 0.00974136 1.715e-07 272.763 
-0.43 -0.85 -0.186495 0.130212 0.00976719 0.00974258 7.68599e-06 0.00975057 1.71668e-07 272.754 
-0.37 -0.87 -0.319107 0.1834 0.00977215 0.00973241 8.95701e-06 0.00975337 1.71612e-07 272.92 
-0.41 -0.85 -0.134738 0.117465 0.00976745 0.00972272 9.77582e-06 0.00974862 1.71662e-07 272.708 
-0.35 -0.87 -0.29051 0.170105 0.0097724 0.0097234 1.14327e-05 0.00974567 1.71493e-07 272.895 
-0.39 -0.85 -0.291585 0.316275 0.0097671 0.00971825 -1.74615e-07 0.0097491 1.71589e-07 272.839 
-0.33 -0.87 -0.383653 0.0683469 0.00976952 0.00972292 1.33702e-05 0.00974833 1.71532e-07 272.908 
-0.37 -0.85 -0.359127 0.0502171 0.00976585 0.00972346 6.77962e-06 0.00974527 1.71491e-07 272.887 
-0.35 -0.85 -0.286475 0.190987 0.00976422 0.0097202 1.37804e-05 0.00974244 1.71333e-07 273.06 
-0.33 -0.85 -0.395254 0.261548 0.00976482 0.00972285 1.44477e-05 0.009741 1.7142e-07 272.88 
-0.31 -0.99 0.0577723 -0.0485974 0.00972975 0.00971077 1.42523e-05 0.00971853 1.71174e-07 272.642 
-0.29 -0.99 -0.0788561 0.103039 0.00973156 0.00971689 1.22506e-05 0.00972842 1.71216e-07 272.853 
-0.27 -0.99 -0.171852 -0.000274472 0.00974339 0.00972833 6.6782e-06 0.00973299 1.71141e-07 273.1 
-0.31 -0.97 -0.395738 -0.0483057 0.00974678 0.00971569 5.13709e-06 0.00973256 1.7135e-07 272.755 
-0.29 -0.97 -0.383315 0.246727 0.00975596 0.00971739 9.89119e-06 0.00974519 1.71545e-07 272.799 
-0.33 -0.95 -0.104229 0.14032 0.0097512 0.00971895 9.46071e-06 0.00973703 1.7134e-07 272.897 
-0.27 -0.97 -0.318543 -0.0614265 0.00974668 0.0097239 1.15618e-05 0.00974026 1.71428e-07 272.847 
-0.31 -0.95 -0.255759 0.225674 0.00974959 0.00971897 7.22415e-06 0.00973289 1.71354e-07 272.758 
-0.29 -0.95 -0.248107 0.0541708 0.00974433 0.00970621 6.55459e-06 0.00972564 1.7131e-07 272.624 
-0.33 -0.93 -0.36443 0.148102 0.00976073 0.00971615 3.03651e-06 0.00973705 1.71336e-07 272.904 
-0.27 -0.95 -0.319388 -0.0223389 0.00975109 0.00973011 8.17745e-06 0.00974348 1.71399e-07 272.984 
-0.31 -0.93 -0.11442 0.0930104 0.00976128 0.0097178 1.0391e-05 0.0097417 1.71622e-07 272.579 
-0.29 -0.93 -0.173784 0.199627 0.00976063 0.00970969 9.73217e-06 0.00973785 1.71498e-07 272.667 
-0.27 -0.93 -0.139374 0.0595195 0.00975657 0.00972359 9.89382e-06 0.0097429 1.71547e-07 272.731 
-0.31 -0.91 -0.230786 0.162286 0.00975114 0.00971484 8.42892e-06 0.00973792 1.71475e-07 272.707 
-0.29 -0.91 -0.211559 0.0549554 0.00975041 0.00971118 2.61983e-06 0.00973108 1.7141e-07 272.619 
-0.33 -0.89 -0.333895 -0.0291126 0.00976021 0.00972302 9.20967e-06 0.00974405 1.71461e-07 272.901 
-0.27 -0.91 -0.0564453 0.107645 0.00975593 0.00972135 6.61507e-06 0.00973507 1.7148e-07 272.619 
-0.31 -0.89 -0.278507 0.142694 0.00976381 0.00971541 3.80755e-06 0.00974835 1.71589e-07 272.818 
-0.29 -0.89 -0.233212 0.00464773 0.00975976 0.00971061 7.6469e-06 0.00974172 1.71358e-07 272.998 
-0.27 -0.89 -0.376906 0.223734 0.00975338 0.00971751 8.92342e-06 0.00974326 1.7146e-07 272.88 
-0.31 -0.87 -0.460617 0.151431 0.00975995 0.0097167 9.19507e-06 0.00973824 1.71457e-07 272.743 
-0.29 -0.87 -0.446989 0.00222931 0.00975613 0.00970833 9.83907e-06 0.00973793 1.71328e-07 272.941 
-0.27 -0.87 -0.402386 0.246554 0.00975562 0.00971765 1.44806e-05 0.00974136 1.71404e-07 272.915 
-0.31 -0.85 -0.41384 -0.0644367 0.00976489 0.00972058 1.94264e-05 0.00974502 1.71486e-07 272.888 
-0.29 -0.85 -0.262382 0.135234 0.00975539 0.00970702 1.41382e-05 0.0097404 1.71376e-07 272.934 
-0.27 -0.85 -0.316867 0.138042 0.00975377 0.00971479 1.13678e-05 0.00973749 1.71168e-07 273.184 
-0.25 -0.99 -0.293492 0.098527 0.00974646 0.00973479 1.28053e-05 0.00974255 1.71375e-07 272.996 
-0.25 -0.97 -0.175502 0.13301 0.00974709 0.00973045 6.57042e-06 0.00974073 1.71493e-07 272.757 
-0.25 -0.95 -0.426509 0.0796739 0.00974746 0.00973262 1.05427e-05 0.00974155 1.71411e-07 272.909 
-0.25 -0.93 -0.115788 0.0967395 0.00975771 0.00973523 1.39796e-05 0.00974449 1.71573e-07 272.734 
-0.25 -0.91 -0.217422 0.133858 0.00975919 0.00973026 1.02064e-05 0.00974659 1.71588e-07 272.769 
-0.25 -0.89 -0.354028 0.164678 0.00975005 0.00972304 1.37596e-05 0.00973752 1.71341e-07 272.908 
-0.25 -0.87 -0.437409 0.190833 0.00974924 0.00971671 1.62008e-05 0.00973809 1.71285e-07 273.014 
-0.25 -0.85 -0.253311 0.301006 0.0097618 0.0097191 1.13085e-05 0.00974682 1.71386e-07 273.097 
-0.25 -0.83 -0.432171 0.242662 0.00975872 0.00971437 6.34993e-06 0.00974422 1.71352e-07 273.079 
-0.33 -0.81 -0.0683894 0.184404 0.00976257 0.00971014 1.34064e-05 0.00973843 1.71417e-07 272.812 
-0.31 -0.81 -0.190683 0.124419 0.00977762 0.00972136 1.46463e-05 0.00975365 1.71482e-07 273.136 
-0.29 -0.81 -0.244516 0.111357 0.00978071 0.00972554 1.20157e-05 0.00975668 1.71499e-07 273.194 
-0.27 -0.81 -0.336486 0.321446 0.00977487 0.00971867 1.25062e-05 0.00975323 1.71472e-07 273.14 
-0.31 -0.79 -0.295642 0.16722 0.00975575 0.00971574 8.45984e-06 0.00973719 1.71377e-07 272.841 
-0.29 -0.79 -0.438397 0.348349 0.00976075 0.00972143 1.13398e-05 0.0097398 1.71476e-07 272.757 
-0.33 -0.77 -0.334377 0.331485 0.00976855 0.00972222 1.70952e-05 0.00974544 1.71449e-07 272.959 
-0.27 -0.79 -0.477558 0.208916 0.00976531 0.00971576 1.65624e-05 0.00974227 1.71422e-07 272.914 
-0.31 -0.77 -0.272649 0.196088 0.009764 0.00971445 1.23618e-05 0.00974201 1.71484e-07 272.807 
-0.29 -0.77 -0.265383 0.379714 0.00975505 0.00971777 1.07732e-05 0.00973966 1.71523e-07 272.68 
-0.27 -0.77 -0.359637 0.237261 0.00975503 0.00971246 9.87879e-06 0.00974009 1.71403e-07 272.882 
-0.31 -0.75 -0.16821 0.410605 0.00976088 0.00971844 1.07509e-05 0.00974822 1.71575e-07 272.836 
-0.29 -0.75 -0.493136 0.389568 0.00976147 0.00971917 1.48859e-05 0.00974779 1.71539e-07 272.882 
-0.27 -0.75 -0.439851 0.460241 0.00976289 0.00971191 1.65224e-05 0.00973843 1.71354e-07 272.913 
-0.49 -0.83 -0.088249 0.314466 0.00975195 0.00971759 -2.86768e-06 0.00973516 1.71375e-07 272.789 
-0.47 -0.83 -0.157622 0.223233 0.00975263 0.00972092 2.36916e-06 0.00973876 1.71602e-07 272.528 
-0.45 -0.83 -0.16161 0.213983 0.00975414 0.00972016 -6.37061e-07 0.00973955 1.71466e-07 272.767 
-0.49 -0.81 -0.0276855 0.40194 0.00976035 0.00972043 -1.73287e-06 0.00974132 1.71493e-07 272.774 
-0.43 -0.83 -0.106743 0.165749 0.00975501 0.00972951 3.94388e-06 0.00974402 1.71538e-07 272.777 
-0.47 -0.81 -0.0953001 0.23709 0.00976056 0.00971915 -1.39954e-06 0.00974366 1.71482e-07 272.856 
-0.45 -0.81 -0.0732582 0.201588 0.00976631 0.0097238 2.82913e-07 0.00974398 1.7151e-07 272.821 
-0.49 -0.79 0.00182086 0.533787 0.00975815 0.00972171 9.37909e-07 0.0097408 1.71394e-07 272.917 
-0.43 -0.81 -0.127306 0.252855 0.00976365 0.00971834 1.92969e-06 0.00974404 1.71638e-07 272.619 
-0.47 -0.79 0.00145113 0.160217 0.00975493 0.00971929 -8.03948e-06 0.00974225 1.71401e-07 272.946 
-0.41 -0.81 -0.267395 0.226723 0.00976275 0.00973006 1.15361e-05 0.00975123 1.71573e-07 272.923 
-0.45 -0.79 -0.0398095 0.270313 0.00975595 0.00971773 1.60008e-06 0.00973563 1.71431e-07 272.713 
-0.49 -0.77 0.0663866 0.397912 0.00976076 0.00972304 6.43642e-06 0.00974659 1.71432e-07 273.018 
-0.39 -0.81 -0.293915 0.196408 0.00975375 0.00971901 1.6312e-05 0.0097436 1.71585e-07 272.69 
-0.43 -0.79 -0.329203 0.415941 0.00976439 0.00971604 2.37148e-06 0.00973937 1.71521e-07 272.674 
-0.47 -0.77 0.023627 0.353728 0.00975597 0.00972697 1.42496e-06 0.00974436 1.7139e-07 273.023 
-0.37 -0.81 -0.0575809 0.135208 0.00975182 0.00971541 9.73611e-06 0.00973342 1.71506e-07 272.532 
-0.41 -0.79 -0.358801 0.31532 0.00976822 0.00972451 7.61016e-06 0.00975021 1.71726e-07 272.652 
-0.45 -0.77 -0.29965 0.495368 0.00975426 0.00971303 -5.90766e-06 0.00973647 1.71408e-07 272.773 
-0.35 -0.81 -0.0193843 0.210166 0.00974677 0.00971341 4.94932e-06 0.00973638 1.71362e-07 272.843 
-0.39 -0.79 -0.277414 0.0645087 0.00977064 0.00971757 1.09872e-05 0.00974557 1.7172e-07 272.532 
-0.43 -0.77 -0.234405 0.437452 0.00975205 0.00971474 6.81869e-07 0.00973442 1.7142e-07 272.697 
-0.37 -0.79 -0.27116 0.109301 0.00977772 0.00971765 1.08632e-05 0.00974824 1.71614e-07 272.774 
-0.41 -0.77 -0.251733 0.159823 0.00975215 0.00971186 8.07976e-06 0.0097349 1.71424e-07 272.704 
-0.35 -0.79 -0.185984 0.110359 0.00977627 0.0097163 1.5736e-05 0.00974734 1.71587e-07 272.793 
-0.39 -0.77 -0.119135 0.0794747 0.00975385 0.00972411 1.09785e-05 0.00974525 1.71616e-07 272.688 
-0.43 -0.75 0.0665937 0.195983 0.0097638 0.00971343 -3.35148e-06 0.00974173 1.71464e-07 272.831 
-0.33 -0.79 -0.188418 0.267782 0.0097603 0.00971166 4.75306e-06 0.0097358 1.71406e-07 272.758 
-0.37 -0.77 -0.107773 0.128341 0.00975766 0.00971427 4.00319e-06 0.00973735 1.71453e-07 272.726 
-0.41 -0.75 0.0222506 0.351485 0.00976658 0.0097033 4.93898e-06 0.00974238 1.71551e-07 272.71 
-0.35 -0.77 -0.340441 0.224178 0.0097658 0.00971306 8.93932e-06 0.00973811 1.71315e-07 272.966 
-0.39 -0.75 -0.193864 0.102094 0.00977207 0.00972459 4.516e-06 0.00975162 1.71658e-07 272.799 
-0.49 -0.75 -0.020202 0.320959 0.00975885 0.0097271 6.66092e-06 0.00974706 1.71421e-07 273.048 
-0.47 -0.75 -0.0480779 0.536001 0.00976002 0.00973503 5.0091e-06 0.00974359 1.71356e-07 273.054 
-0.45 -0.75 -0.0653242 0.615408 0.00975887 0.00971027 -2.01076e-06 0.00973133 1.71417e-07 272.615 
-0.49 -0.73 -0.120523 0.524679 0.00977357 0.00972136 5.44155e-06 0.0097477 1.71396e-07 273.106 
-0.47 -0.73 -0.230487 0.478226 0.00977433 0.00974588 5.10892e-06 0.00975655 1.71493e-07 273.2 
-0.45 -0.73 -0.0879286 0.365847 0.00977304 0.00971778 -6.97386e-06 0.0097409 1.7146e-07 272.814 
-0.49 -0.71 0.0119339 0.627862 0.00977421 0.00972055 1.46058e-06 0.009745 1.71542e-07 272.798 
-0.43 -0.73 -0.0566865 0.333483 0.00976247 0.00970596 3.15221e-06 0.0097363 1.71396e-07 272.788 
-0.47 -0.71 -0.0109059 0.538375 0.00977469 0.00974242 8.87451e-07 0.00975626 1.7156e-07 273.085 
-0.37 -0.75 -0.215561 0.0960776 0.00976259 0.0097138 1.36831e-05 0.00973787 1.71475e-07 272.706 
-0.41 -0.73 -0.0715461 0.340493 0.00976192 0.0097013 -1.33465e-06 0.00973877 1.71542e-07 272.625 
-0.45 -0.71 0.0787549 0.222971 0.00976608 0.00972049 9.84958e-06 0.00974291 1.71422e-07 272.931 
-0.49 -0.69 0.0496177 0.558851 0.00976903 0.00971828 -5.47239e-06 0.00974489 1.71499e-07 272.863 
-0.35 -0.75 -0.0587712 0.291025 0.00975501 0.00970906 1.06805e-05 0.00973463 1.71356e-07 272.804 
-0.39 -0.73 -0.0937686 0.184729 0.00976413 0.00971061 1.10356e-05 0.00973982 1.71385e-07 272.903 
-0.43 -0.71 -0.0677573 0.370161 0.00976468 0.00970692 2.45405e-06 0.00974002 1.7157e-07 272.614 
-0.47 -0.69 0.131097 0.440084 0.00977203 0.00973093 4.53493e-06 0.00975186 1.71492e-07 273.069 
-0.37 -0.73 -0.304276 0.155811 0.00976962 0.0097192 1.27448e-05 0.00974628 1.71548e-07 272.825 
-0.41 -0.71 -0.0906118 0.465925 0.00976766 0.00969576 9.32479e-07 0.00973879 1.7168e-07 272.406 
-0.45 -0.69 -0.00431489 0.367268 0.00977912 0.00971923 1.04765e-05 0.00975277 1.71638e-07 272.862 
-0.35 -0.73 -0.54723 0.401943 0.00976859 0.00971193 1.02317e-05 0.00974444 1.7157e-07 272.739 
-0.39 -0.71 -0.17003 0.203003 0.00976813 0.00971087 6.89583e-07 0.00973926 1.71511e-07 272.686 
-0.43 -0.69 -0.0977457 0.52563 0.00977789 0.00971605 8.23205e-06 0.0097545 1.71832e-07 272.603 
-0.33 -0.73 -0.432671 0.109822 0.00976833 0.00970701 1.42906e-05 0.00974033 1.71555e-07 272.647 
-0.37 -0.71 -0.0962949 0.281268 0.00976797 0.00971397 1.4133e-05 0.00974441 1.71535e-07 272.792 
-0.41 -0.69 -0.0734069 0.332694 0.00976896 0.00970264 2.63631e-06 0.00973737 1.71626e-07 272.451 
-0.35 -0.71 -0.255994 0.518521 0.00976843 0.00970671 8.76702e-06 0.00974587 1.71565e-07 272.786 
-0.39 -0.69 -0.0539489 0.389105 0.00976046 0.00969924 5.25318e-06 0.0097333 1.71368e-07 272.748 
-0.37 -0.69 -0.299501 0.339988 0.00976322 0.00971148 1.00401e-05 0.00974023 1.71444e-07 272.821 
-0.35 -0.69 -0.254795 0.555469 0.00976466 0.00970546 1.33489e-05 0.00973576 1.71359e-07 272.83 
-0.35 -0.67 -0.21441 0.45795 0.00977098 0.00971656 1.07452e-05 0.00974316 1.7145e-07 272.893 
-0.33 -0.67 -0.285803 0.523284 0.00975672 0.0097017 7.15846e-06 0.00974007 1.71519e-07 272.696 
-0.33 -0.75 -0.075911 0.205265 0.00975628 0.00971478 1.33928e-05 0.00973557 1.71346e-07 272.846 
-0.31 -0.73 -0.428015 0.501702 0.00976659 0.00972483 1.37272e-05 0.009749 1.7155e-07 272.897 
-0.29 -0.73 -0.267342 0.516372 0.00977002 0.00970993 1.24735e-05 0.00974917 1.71521e-07 272.949 
-0.33 -0.71 -0.512482 0.104123 0.00976795 0.00971079 1.42795e-05 0.00974289 1.71497e-07 272.811 
-0.27 -0.73 -0.403917 0.508971 0.00976576 0.00972003 1.99504e-05 0.00975015 1.71484e-07 273.035 
-0.31 -0.71 -0.403385 0.420445 0.00976925 0.00972344 1.52133e-05 0.00974979 1.71565e-07 272.896 
-0.29 -0.71 -0.426857 0.447886 0.00976235 0.00970727 1.86878e-05 0.00974276 1.71339e-07 273.059 
-0.33 -0.69 -0.297791 0.285346 0.00977394 0.00970957 4.79067e-06 0.0097459 1.71656e-07 272.642 
-0.27 -0.71 -0.383872 0.516747 0.00976465 0.00971424 1.27275e-05 0.00974174 1.71287e-07 273.112 
-0.31 -0.69 -0.515235 0.389231 0.00977649 0.00971574 1.43173e-05 0.00975167 1.71597e-07 272.897 
-0.29 -0.69 -0.461011 0.53951 0.00977931 0.00971352 1.8159e-05 0.00975238 1.7155e-07 272.992 
-0.27 -0.69 -0.495302 0.404017 0.00978182 0.00972046 1.3631e-05 0.00975137 1.71376e-07 273.241 
-0.31 -0.67 -0.418747 0.488323 0.00975762 0.00971113 1.15799e-05 0.00973914 1.71479e-07 272.734 
-0.29 -0.67 -0.468348 0.392337 0.0097626 0.00971346 1.3958e-05 0.00974063 1.71317e-07 273.034 
-0.41 -0.83 -0.182834 0.185602 0.00975833 0.00973096 7.94155e-06 0.00974703 1.71611e-07 272.745 
-0.39 -0.83 -0.157289 0.325825 0.00975563 0.00971917 5.85098e-06 0.00973506 1.71447e-07 272.671 
-0.37 -0.83 -0.166883 0.240008 0.00974854 0.00971506 6.73736e-06 0.00973178 1.71254e-07 272.886 
-0.35 -0.83 -0.276681 0.0811248 0.00975479 0.00971836 1.71526e-05 0.00973379 1.71307e-07 272.858 
-0.33 -0.83 -0.172187 0.303869 0.00975169 0.00971996 1.4708e-05 0.00973483 1.71225e-07 273.018 
-0.31 -0.83 -0.100563 -0.224814 0.0097461 0.00971098 2.00209e-05 0.00973652 1.71427e-07 272.744 
-0.29 -0.83 -0.237575 0.163675 0.00975367 0.00972106 1.89019e-05 0.00974662 1.71313e-07 273.208 
-0.27 -0.83 -0.328424 0.263539 0.00975513 0.00971677 6.83644e-06 0.00974344 1.71354e-07 273.055 
-0.27 -0.67 -0.482393 0.548317 0.00976003 0.00971934 1.6849e-05 0.00974177 1.71347e-07 273.018 
-0.25 -0.67 -0.468894 0.471757 0.00977162 0.00972192 1.2732e-05 0.00975418 1.71424e-07 273.243 
-0.25 -0.81 -0.300854 0.327087 0.00976034 0.00971431 8.53486e-06 0.00974488 1.71451e-07 272.941 
-0.25 -0.79 -0.311016 0.231485 0.00977027 0.00972379 1.8981e-05 0.00974737 1.71473e-07 272.974 
-0.35 -0.55 -0.261939 0.771416 0.009783 0.00971588 6.24201e-06 0.00974822 1.71489e-07 272.973 
-0.39 -0.53 -0.274259 0.931289 0.00977887 0.00969303 2.89008e-06 0.00974042 1.71378e-07 272.93 
-0.37 -0.57 -0.261733 0.777052 0.00977172 0.00970355 1.26811e-05 0.00974396 1.71331e-07 273.106 
-0.41 -0.55 -0.207226 0.892563 0.00976041 0.00970155 7.05168e-06 0.00973764 1.71403e-07 272.814 
-0.45 -0.53 -0.0795177 0.61268 0.00976337 0.00969712 1.08809e-06 0.00973035 1.71287e-07 272.794 
-0.35 -0.57 -0.237257 0.748017 0.00977861 0.00970664 1.95882e-05 0.00974484 1.7146e-07 272.924 
-0.39 -0.55 -0.297059 0.730328 0.00976065 0.00968719 4.97845e-06 0.00973469 1.71285e-07 272.918 
-0.43 -0.53 -0.190306 0.765841 0.00976823 0.00969403 4.41886e-06 0.00973391 1.71466e-07 272.609 
-0.47 -0.51 -0.0501517 0.790554 0.00976839 0.00970102 -2.12973e-06 0.0097367 1.7152e-07 272.601 
-0.37 -0.55 -0.324488 0.775365 0.00976484 0.00969312 6.57612e-06 0.00973723 1.71239e-07 273.063 
-0.41 -0.53 -0.238336 0.755705 0.00977405 0.00970313 3.33669e-06 0.00973875 1.71496e-07 272.697 
-0.45 -0.51 -0.292739 0.714512 0.00976695 0.0096916 2.68244e-06 0.00973341 1.71401e-07 272.698 
-0.37 -0.53 -0.246035 0.728942 0.00978236 0.0096947 -1.49451e-06 0.00974314 1.71482e-07 272.841 
-0.41 -0.51 -0.287091 0.789974 0.00976742 0.00970131 -8.48794e-07 0.0097379 1.71438e-07 272.764 
-0.35 -0.53 -0.336466 0.791286 0.00977422 0.00970754 7.63972e-06 0.00974211 1.71535e-07 272.728 
-0.39 -0.51 -0.353888 0.857578 0.0097724 0.00969269 -3.76911e-07 0.00973666 1.71472e-07 272.677 
-0.37 -0.51 -0.38919 0.810826 0.00976842 0.00969012 4.56792e-06 0.0097329 1.71282e-07 272.874 
-0.35 -0.51 -0.409113 0.839602 0.00976924 0.00970135 1.03014e-05 0.00973079 1.71339e-07 272.724 
-0.49 -0.65 -0.0289803 0.475725 0.0097711 0.00971934 6.54916e-06 0.00974725 1.7145e-07 273.008 
-0.47 -0.65 -0.0662786 0.436362 0.00976978 0.00971736 2.36534e-06 0.0097493 1.7152e-07 272.954 
-0.45 -0.65 -0.0319925 0.593813 0.00976565 0.00972269 8.54024e-06 0.00974943 1.71668e-07 272.723 
-0.49 -0.63 -0.0101921 0.457332 0.00976779 0.009725 1.97051e-06 0.00975408 1.71755e-07 272.714 
-0.43 -0.65 0.0382218 0.616343 0.00976002 0.00969969 5.22298e-06 0.00973615 1.71451e-07 272.695 
-0.47 -0.63 -0.0303742 0.517114 0.00976415 0.0097052 1.1435e-06 0.00974007 1.71533e-07 272.675 
-0.41 -0.65 0.00845559 0.514517 0.00976426 0.00970616 1.18528e-05 0.00973965 1.71439e-07 272.813 
-0.45 -0.63 -0.0469088 0.547901 0.00977453 0.00972396 8.32757e-06 0.00975464 1.7167e-07 272.864 
-0.49 -0.61 -0.0347787 0.579501 0.0097655 0.00971455 -4.61853e-06 0.00974692 1.7151e-07 272.903 
-0.39 -0.65 -0.0816811 0.46512 0.00976136 0.00971352 7.3924e-06 0.00974283 1.71327e-07 273.079 
-0.43 -0.63 -0.0918694 0.617829 0.00977877 0.00970661 1.03524e-05 0.00974401 1.71376e-07 273.036 
-0.47 -0.61 -0.139998 0.499101 0.00976852 0.00971164 5.35144e-06 0.00974383 1.71458e-07 272.9 
-0.37 -0.65 -0.185148 0.48027 0.00976118 0.00969575 1.70113e-06 0.00972936 1.71151e-07 272.983 
-0.41 -0.63 -0.112358 0.625867 0.00977384 0.00969781 2.80426e-06 0.00973957 1.71413e-07 272.851 
-0.45 -0.61 -0.132547 0.610657 0.00976573 0.00971118 -3.8022e-06 0.00974129 1.71385e-07 272.944 
-0.49 -0.59 -0.0139496 0.553295 0.00977785 0.00970599 -4.22401e-06 0.00975011 1.71673e-07 272.733 
-0.35 -0.65 -0.296895 0.462875 0.00976946 0.00971422 1.11809e-05 0.0097402 1.71428e-07 272.845 
-0.39 -0.63 -0.0679826 0.522398 0.00978249 0.009718 1.15283e-05 0.00975179 1.71515e-07 273.031 
-0.43 -0.61 -0.0433411 0.659453 0.00977844 0.00970705 3.99215e-06 0.00974304 1.7139e-07 272.985 
-0.47 -0.59 0.0706525 0.592747 0.0097856 0.00971562 -4.98676e-06 0.00975223 1.71564e-07 272.966 
-0.37 -0.63 -0.195357 0.501054 0.00976756 0.00969628 1.25532e-05 0.00973136 1.71213e-07 272.939 
-0.41 -0.61 -0.109348 0.537445 0.0097797 0.0097048 1.13009e-05 0.00974225 1.71394e-07 272.957 
-0.45 -0.59 -0.0112001 0.468692 0.0097831 0.00971281 8.35224e-07 0.00975264 1.71557e-07 272.989 
-0.49 -0.57 -0.0621385 0.518641 0.00977987 0.00970674 -6.25916e-06 0.00974486 1.71493e-07 272.872 
-0.35 -0.63 -0.304316 0.589698 0.00976271 0.00970417 1.04899e-05 0.00973341 1.7128e-07 272.891 
-0.39 -0.61 -0.0360198 0.471604 0.00977692 0.00970546 1.05137e-05 0.0097404 1.71316e-07 273.029 
-0.43 -0.59 -0.0402409 0.771101 0.00977325 0.00969737 5.52382e-06 0.00974456 1.7154e-07 272.79 
-0.47 -0.57 -0.0616661 0.509118 0.00976816 0.00970843 -4.89424e-06 0.00973769 1.71389e-07 272.838 
-0.37 -0.61 -0.110495 0.724026 0.00977648 0.00970481 1.33571e-05 0.00974139 1.71514e-07 272.743 
-0.41 -0.59 -0.00479335 0.522302 0.0097805 0.00970385 3.1136e-06 0.00974021 1.71405e-07 272.882 
-0.45 -0.57 -0.043347 0.700343 0.00977167 0.00970545 2.5753e-06 0.0097403 1.71387e-07 272.914 
-0.49 -0.55 -0.0418106 0.622587 0.0097561 0.00970409 -6.77275e-06 0.00973432 1.71325e-07 272.845 
-0.35 -0.61 -0.126438 0.599276 0.00977154 0.00970228 1.08146e-05 0.00973645 1.7135e-07 272.864 
-0.39 -0.59 -0.0540171 0.533456 0.0097777 0.00969118 1.07302e-05 0.00973879 1.71377e-07 272.887 
-0.43 -0.57 0.0423408 0.621111 0.00977313 0.00969765 4.60555e-06 0.00974027 1.71386e-07 272.915 
-0.47 -0.55 -0.141056 0.657306 0.00976744 0.00970013 9.99195e-07 0.00974019 1.71513e-07 272.71 
-0.33 -0.61 -0.35308 0.636534 0.00976857 0.00970117 1.83917e-05 0.0097384 1.71298e-07 273.003 
-0.37 -0.59 -0.108392 0.707399 0.00978398 0.00971593 2.07999e-05 0.00975317 1.71621e-07 272.902 
-0.41 -0.57 -0.0740572 0.661221 0.00976566 0.00970269 1.29204e-05 0.00973836 1.71278e-07 273.033 
-0.45 -0.55 -0.171555 0.544742 0.00976091 0.00970088 2.76765e-06 0.00972818 1.71211e-07 272.854 
-0.49 -0.53 0.0134102 0.7105 0.00976504 0.00969835 -1.57148e-06 0.00973796 1.71359e-07 272.892 
-0.35 -0.59 -0.27635 0.729002 0.00977449 0.00969612 1.57792e-05 0.00973391 1.71394e-07 272.723 
-0.39 -0.57 -0.270085 0.716076 0.00976795 0.00968464 6.982e-06 0.0097344 1.71237e-07 272.987 
-0.43 -0.55 -0.190068 0.546653 0.00975922 0.00969382 8.63988e-06 0.00973048 1.71346e-07 272.703 
-0.47 -0.53 -0.0425173 0.606847 0.00975773 0.00969861 5.30588e-08 0.00972758 1.71238e-07 272.794 
-0.29 -0.57 -0.553649 0.655473 0.00977485 0.00971189 1.91476e-05 0.00974718 1.71444e-07 273.015 
-0.33 -0.55 -0.446355 0.843573 0.00978507 0.00970994 1.05405e-05 0.00974991 1.71539e-07 272.94 
-0.29 -0.61 -0.314359 0.585686 0.00976913 0.00971952 7.97841e-06 0.00974795 1.71663e-07 272.688 
-0.33 -0.59 -0.259228 0.874246 0.00977367 0.00970654 1.35628e-05 0.00974264 1.71329e-07 273.072 
-0.27 -0.61 -0.369957 0.511961 0.00978046 0.00971173 1.54853e-05 0.00975003 1.71631e-07 272.797 
-0.31 -0.59 -0.447535 0.675541 0.00977595 0.00971061 1.13199e-05 0.00974347 1.71471e-07 272.868 
-0.29 -0.59 -0.360783 0.42942 0.00977921 0.00972136 1.1084e-05 0.00974748 1.71581e-07 272.806 
-0.33 -0.57 -0.335109 0.799332 0.00978042 0.00971357 7.62077e-06 0.00974914 1.71468e-07 273.031 
-0.27 -0.59 -0.446686 0.635234 0.00976874 0.00970117 1.30162e-05 0.0097385 1.7143e-07 272.795 
-0.31 -0.57 -0.343064 0.718579 0.00978049 0.0097081 6.15526e-06 0.00974674 1.71534e-07 272.86 
-0.27 -0.57 -0.639555 0.656433 0.00976955 0.0097037 2.62931e-05 0.00974811 1.7158e-07 272.825 
-0.31 -0.55 -0.354374 0.933991 0.0097733 0.00970815 1.86926e-05 0.00974486 1.71448e-07 272.943 
-0.29 -0.55 -0.510922 0.663275 0.00976312 0.00969603 2.22908e-05 0.00973197 1.71271e-07 272.864 
-0.33 -0.53 -0.329234 1.03259 0.00977267 0.00969861 1.29913e-05 0.00973674 1.71288e-07 272.971 
-0.27 -0.55 -0.418919 0.605147 0.00976784 0.00970997 1.79456e-05 0.00973791 1.71373e-07 272.869 
-0.31 -0.53 -0.395338 0.756525 0.00977296 0.00970456 2.38944e-05 0.00974341 1.71473e-07 272.864 
-0.29 -0.53 -0.289434 0.674295 0.00978571 0.00970288 1.85679e-05 0.00974991 1.71509e-07 272.989 
-0.33 -0.51 -0.269432 0.894736 0.00976426 0.00969243 1.59133e-05 0.00973262 1.71149e-07 273.077 
-0.27 -0.53 -0.489909 0.800794 0.00977969 0.00970994 2.33242e-05 0.00974309 1.71472e-07 272.856 
-0.31 -0.51 -0.326412 0.87832 0.00976537 0.00970209 1.63945e-05 0.00973126 1.71303e-07 272.794 
-0.29 -0.51 -0.523639 0.779663 0.00975799 0.00970087 2.32887e-05 0.0097377 1.71443e-07 272.752 
-0.27 -0.51 -0.580328 1.08043 0.00975815 0.00970274 2.76125e-05 0.00973611 1.71316e-07 272.909 
-0.33 -0.65 -0.350349 0.458351 0.00977344 0.00970811 1.68264e-05 0.00974056 1.71365e-07 272.955 
-0.31 -0.65 -0.265818 0.624946 0.00976708 0.00971013 1.24329e-05 0.00974069 1.71356e-07 272.974 
-0.29 -0.65 -0.49427 0.527554 0.00975961 0.00970548 1.20306e-05 0.00973052 1.7114e-07 273.033 
-0.33 -0.63 -0.270051 0.495317 0.00976117 0.0097098 7.74609e-06 0.00974048 1.71442e-07 272.831 
-0.27 -0.65 -0.450057 0.4883 0.00976972 0.0097238 1.04283e-05 0.00974744 1.71449e-07 273.015 
-0.31 -0.63 -0.403392 0.715106 0.00976331 0.00970466 1.62986e-05 0.0097373 1.71304e-07 272.961 
-0.25 -0.65 -0.508655 0.411256 0.00976423 0.00971774 1.30445e-05 0.00974139 1.71421e-07 272.889 
-0.29 -0.63 -0.433774 0.449172 0.00977154 0.00971928 1.26067e-05 0.00974533 1.71519e-07 272.844 
-0.27 -0.63 -0.446629 0.499189 0.00975837 0.00971562 1.23693e-05 0.00973789 1.71458e-07 272.732 
-0.31 -0.61 -0.421075 0.581284 0.00977122 0.00971159 1.12088e-05 0.00974803 1.71628e-07 272.747 
-0.49 -0.67 0.0667368 0.495059 0.00976918 0.00971703 -6.48479e-06 0.00974215 1.71465e-07 272.842 
-0.47 -0.67 0.0690242 0.417482 0.00976796 0.00972502 3.06777e-06 0.00974525 1.71531e-07 272.823 
-0.45 -0.67 0.0833983 0.492416 0.00976551 0.00972016 3.86475e-06 0.00974851 1.71568e-07 272.854 