ITEM: TIMESTEP
931500
ITEM: NUMBER OF CELLS
5000
ITEM: BOX BOUNDS ss ss pp
-0.5 0.5
-1 1
-0.5 0.5
ITEM: CELLS xc yc f_U[*] f_V[*] f_Tau[1] f_Tau[2] f_Tau[3] f_Press[*] f_Mrho[*] f_Ttra[*] 
-0.49 -0.99 -0.076755 0.138239 0.00975908 0.00973006 1.43565e-05 0.00974707 1.71706e-07 272.595 
-0.47 -0.99 -0.199555 -0.0711845 0.00974718 0.0097146 7.44821e-06 0.00973373 1.71491e-07 272.564 
-0.45 -0.99 -0.192711 -0.0226203 0.00974484 0.00972972 2.77779e-06 0.00974329 1.71497e-07 272.822 
-0.49 -0.97 -0.0507785 0.186716 0.00973773 0.00972123 9.52993e-06 0.00973093 1.71329e-07 272.743 
-0.43 -0.99 -0.194968 -0.00971415 0.00973492 0.00973059 2.7338e-06 0.00974162 1.71366e-07 272.983 
-0.47 -0.97 -0.0459505 0.0567008 0.00974565 0.00971867 1.15563e-05 0.00973779 1.71411e-07 272.805 
-0.41 -0.99 -0.00435801 -0.0316913 0.00973056 0.00971967 4.06514e-06 0.00972815 1.71264e-07 272.769 
-0.45 -0.97 -0.105193 0.0233465 0.00974568 0.00973324 5.07395e-06 0.00974428 1.71471e-07 272.892 
-0.49 -0.95 0.068417 0.139024 0.00974205 0.00970995 1.67331e-06 0.00973153 1.71211e-07 272.948 
-0.39 -0.99 -0.113351 0.0679378 0.00973449 0.00971715 -1.82963e-06 0.0097222 1.70884e-07 273.208 
-0.43 -0.97 0.10709 -0.0740903 0.00974976 0.00973341 2.464e-06 0.00974698 1.71413e-07 273.06 
-0.47 -0.95 0.10668 0.12853 0.00975156 0.00972354 1.92717e-06 0.00973426 1.71284e-07 272.908 
-0.37 -0.99 -0.221672 0.00977404 0.00973708 0.00972913 8.15321e-06 0.00973457 1.71229e-07 273.004 
-0.41 -0.97 -0.0541435 -0.13696 0.00974115 0.0097174 6.0789e-06 0.00973131 1.71215e-07 272.935 
-0.45 -0.95 0.270962 -0.244754 0.00975457 0.00973921 7.43233e-06 0.00974981 1.71584e-07 272.866 
-0.49 -0.93 0.0142889 0.01202 0.0097702 0.00972026 2.14915e-06 0.0097471 1.71494e-07 272.934 
-0.35 -0.99 -0.0446804 -0.16548 0.0097254 0.00970203 1.13809e-05 0.00971338 1.70837e-07 273.035 
-0.39 -0.97 0.109516 0.111058 0.00973363 0.00971701 9.24534e-06 0.00973324 1.71237e-07 272.955 
-0.43 -0.95 0.210521 -0.0286015 0.00975484 0.00972415 9.99287e-06 0.00974367 1.71498e-07 272.831 
-0.47 -0.93 0.162518 -0.00842013 0.00976203 0.00971721 1.01185e-06 0.00973699 1.71354e-07 272.873 
-0.33 -0.99 0.0473894 0.0310506 0.00973488 0.0097262 3.95842e-06 0.00972599 1.71145e-07 272.898 
-0.37 -0.97 0.0595461 -0.0192304 0.0097351 0.00972478 1.70109e-06 0.00973701 1.71298e-07 272.963 
-0.41 -0.95 0.00361258 0.0311098 0.00975186 0.00972271 4.71137e-06 0.0097386 1.71415e-07 272.821 
-0.45 -0.93 0.0276975 0.0478084 0.00975681 0.00973255 8.75803e-06 0.00974414 1.71538e-07 272.781 
-0.49 -0.91 0.0609236 0.0572111 0.00976936 0.00972735 1.50703e-05 0.00974511 1.71302e-07 273.183 
-0.35 -0.97 -0.0391758 -0.158909 0.00973717 0.00970918 6.66645e-06 0.0097231 1.71026e-07 273.007 
-0.39 -0.95 -0.0995747 0.0357083 0.0097488 0.00972123 3.5568e-06 0.00973659 1.71454e-07 272.702 
-0.43 -0.93 -0.131403 -0.0172466 0.00975386 0.00972138 6.7157e-06 0.00973052 1.71217e-07 272.91 
-0.47 -0.91 -0.306418 -0.00996816 0.00976244 0.00971437 6.36512e-06 0.00973653 1.71344e-07 272.877 
-0.33 -0.97 -0.148781 -0.0157936 0.00973755 0.00972343 2.67748e-06 0.0097359 1.71369e-07 272.819 
-0.37 -0.95 -0.102738 0.0340126 0.0097526 0.00971773 1.24074e-05 0.00973909 1.71298e-07 273.02 
-0.41 -0.93 -0.106511 0.0698875 0.00975399 0.00972904 1.61453e-05 0.00973147 1.71311e-07 272.786 
-0.45 -0.91 -0.163228 0.0449545 0.00976824 0.00972946 8.94937e-06 0.00975147 1.71527e-07 273.004 
-0.49 -0.89 -0.109414 0.181282 0.00976573 0.00972737 1.0553e-05 0.00974888 1.71501e-07 272.973 
-0.35 -0.95 -0.130465 -0.0977892 0.00975535 0.00971342 1.7799e-06 0.00973617 1.71369e-07 272.827 
-0.39 -0.93 -0.0893113 0.00907597 0.00974948 0.00972306 6.72991e-06 0.00973628 1.71451e-07 272.699 
-0.43 -0.91 -0.20482 -0.0456719 0.00975581 0.00972595 1.4367e-05 0.00973804 1.71144e-07 273.237 
-0.47 -0.89 0.042104 0.120416 0.00976075 0.00972466 1.22428e-05 0.00974545 1.71538e-07 272.818 
-0.37 -0.93 -0.0100462 0.051045 0.00975218 0.00971737 -2.65634e-06 0.00973926 1.71298e-07 273.026 
-0.41 -0.91 -0.0954248 0.105027 0.00976535 0.00972087 5.99851e-06 0.00973887 1.71397e-07 272.858 
-0.45 -0.89 -0.223213 0.0976833 0.0097545 0.00971801 8.0522e-07 0.00974196 1.71329e-07 273.052 
-0.49 -0.87 -0.0387541 0.221166 0.00973979 0.0097126 -7.8109e-07 0.00972497 1.71273e-07 272.666 
-0.35 -0.93 -0.300677 0.0667287 0.00975592 0.00971628 7.7539e-07 0.00972771 1.71352e-07 272.617 
-0.39 -0.91 -0.115192 -0.0283787 0.00977327 0.00973303 1.05247e-05 0.0097573 1.717e-07 272.892 
-0.43 -0.89 -0.213082 -0.0415846 0.00977374 0.00973614 6.92569e-06 0.00975673 1.71494e-07 273.202 
-0.47 -0.87 0.0621431 0.169137 0.00975558 0.00972681 5.02678e-06 0.00974003 1.71419e-07 272.855 
-0.37 -0.91 -0.164326 0.193716 0.0097556 0.00972498 3.87006e-06 0.00974 1.71571e-07 272.612 
-0.41 -0.89 -0.145645 0.055466 0.00976663 0.00971791 3.55155e-06 0.00974586 1.71533e-07 272.836 
-0.45 -0.87 -0.14218 0.156186 0.00976018 0.00971816 1.02624e-05 0.00975029 1.71503e-07 273.009 
-0.49 -0.85 -0.00331193 0.242943 0.00974868 0.00971427 -2.01172e-06 0.00972662 1.71225e-07 272.788 
-0.35 -0.91 -0.0396135 0.183846 0.00974941 0.00971378 1.05637e-06 0.00972687 1.71271e-07 272.722 
-0.39 -0.89 -0.179276 0.0672762 0.0097624 0.00972128 1.24504e-05 0.00974458 1.7144e-07 272.948 
-0.43 -0.87 -0.0851455 -0.0176197 0.00974221 0.0097371 7.23572e-06 0.00974986 1.71542e-07 272.934 
-0.47 -0.85 -0.154475 0.283484 0.00975002 0.00972412 2.966e-06 0.00974309 1.7144e-07 272.906 
-0.33 -0.91 -0.0817426 -0.053168 0.00974958 0.00970548 8.78155e-06 0.00972863 1.71295e-07 272.733 
-0.37 -0.89 -0.246693 0.109414 0.0097705 0.00974193 1.53875e-05 0.00975844 1.7155e-07 273.162 
-0.41 -0.87 -0.177752 0.0407939 0.00975169 0.00972358 7.29779e-06 0.0097396 1.71497e-07 272.719 
-0.45 -0.85 0.00246124 0.0828672 0.00975137 0.00970895 6.43631e-06 0.00973484 1.71355e-07 272.812 
-0.35 -0.89 -0.32327 0.153717 0.00976365 0.00970622 1.00694e-05 0.00972434 1.71164e-07 272.82 
-0.39 -0.87 -0.163029 0.0921429 0.00975892 0.00972043 4.39565e-06 0.00974081 1.71566e-07 272.644 
-0.43 -0.85 -0.0865986 0.0548679 0.00977193 0.00974359 1.10379e-06 0.00975246 1.71625e-07 272.875 
-0.37 -0.87 -0.24089 0.195002 0.00976627 0.00973102 8.25432e-06 0.0097488 1.71561e-07 272.875 
-0.41 -0.85 -0.118733 0.0798966 0.00976432 0.00972071 7.03033e-06 0.00974522 1.716e-07 272.712 
-0.35 -0.87 -0.228844 0.194011 0.00976947 0.0097165 9.97935e-06 0.00973749 1.71259e-07 273.039 
-0.39 -0.85 -0.269801 0.306936 0.00976429 0.0097264 -4.8479e-08 0.00974911 1.71596e-07 272.828 
-0.33 -0.87 -0.458918 0.0239355 0.00976956 0.00971878 8.68952e-06 0.00974283 1.71316e-07 273.097 
-0.37 -0.85 -0.406189 0.0556066 0.00976325 0.00972001 7.99379e-06 0.00974356 1.71392e-07 272.997 
-0.35 -0.85 -0.274448 0.257369 0.00976327 0.00971905 1.16207e-05 0.00973927 1.71088e-07 273.361 
-0.33 -0.85 -0.396615 0.296065 0.00975798 0.00971756 1.01659e-05 0.00973271 1.71095e-07 273.165 
-0.31 -0.99 0.0619131 0.0286926 0.00972906 0.0097082 1.2693e-05 0.00972066 1.71138e-07 272.759 
-0.29 -0.99 -0.149347 0.183825 0.00972923 0.00970875 1.04052e-05 0.00972079 1.71108e-07 272.811 
-0.27 -0.99 -0.187128 -0.142285 0.0097508 0.00973031 6.8189e-06 0.00973582 1.7113e-07 273.197 
-0.31 -0.97 -0.362952 -0.000726531 0.00974732 0.00971201 4.6184e-06 0.00973587 1.71307e-07 272.916 
-0.29 -0.97 -0.222611 0.194546 0.0097577 0.00971434 8.18821e-06 0.00974969 1.71563e-07 272.897 
-0.33 -0.95 -0.135519 0.112425 0.00975604 0.00972145 7.51988e-06 0.00973986 1.71377e-07 272.917 
-0.27 -0.97 -0.164302 -0.0576259 0.00974364 0.00972209 9.37104e-06 0.00973821 1.71381e-07 272.864 
-0.31 -0.95 -0.181651 0.2007 0.00974736 0.00971695 4.37708e-06 0.00973451 1.71291e-07 272.904 
-0.29 -0.95 -0.18103 -0.067395 0.00973688 0.00969993 7.99194e-06 0.00971822 1.71146e-07 272.678 
-0.33 -0.93 -0.325442 0.172563 0.00975932 0.00971451 3.95192e-06 0.00973306 1.71282e-07 272.878 
-0.27 -0.95 -0.292765 0.0351765 0.00974513 0.00973235 6.74593e-06 0.0097361 1.71352e-07 272.852 
-0.31 -0.93 -0.0919554 0.0485524 0.00975838 0.00971311 1.26031e-05 0.00973634 1.71528e-07 272.578 
-0.29 -0.93 -0.257751 0.0824009 0.00976038 0.0097054 7.72495e-06 0.00973285 1.71449e-07 272.607 
-0.27 -0.93 -0.0963107 -0.0110181 0.00976836 0.00972831 4.22061e-06 0.00975189 1.71625e-07 272.859 
-0.31 -0.91 -0.125963 0.243244 0.00975942 0.00971351 5.05709e-06 0.00973808 1.71452e-07 272.747 
-0.29 -0.91 -0.190977 0.00631304 0.00975762 0.00971078 4.44153e-08 0.00973186 1.71341e-07 272.75 
-0.33 -0.89 -0.272231 -0.0443307 0.0097579 0.00971652 2.3401e-06 0.00973213 1.71244e-07 272.913 
-0.27 -0.91 -0.131921 -0.0477361 0.00975671 0.00972134 3.01468e-06 0.00972972 1.71455e-07 272.509 
-0.31 -0.89 -0.22257 0.218392 0.00976028 0.00970849 -1.29265e-06 0.00974084 1.71481e-07 272.779 
-0.29 -0.89 -0.0842612 -0.103806 0.00976062 0.00971196 3.35872e-06 0.00973777 1.7127e-07 273.029 
-0.27 -0.89 -0.251166 0.180958 0.00975464 0.0097148 1.49737e-05 0.00974262 1.71451e-07 272.877 
-0.31 -0.87 -0.437527 -0.029212 0.00975353 0.00971269 6.25189e-06 0.0097321 1.71316e-07 272.796 
-0.29 -0.87 -0.287533 -0.0566903 0.00974189 0.00970324 7.76428e-06 0.00972699 1.71125e-07 272.958 
-0.27 -0.87 -0.358621 0.350494 0.00974202 0.00971401 9.07783e-06 0.0097331 1.71336e-07 272.793 
-0.31 -0.85 -0.400742 -0.186125 0.00975654 0.00971271 1.94871e-05 0.00973599 1.71381e-07 272.802 
-0.29 -0.85 -0.313717 -0.0187271 0.00975012 0.00970423 1.24727e-05 0.00974261 1.71463e-07 272.857 
-0.27 -0.85 -0.408993 0.321262 0.00974899 0.00971195 4.92026e-06 0.00973626 1.71194e-07 273.107 
-0.25 -0.99 -0.275516 0.0857232 0.00975047 0.00974218 1.05526e-05 0.00974832 1.71415e-07 273.094 
-0.25 -0.97 -0.154172 0.203985 0.00974453 0.00973919 4.6603e-06 0.0097439 1.7154e-07 272.77 
-0.25 -0.95 -0.34756 0.180429 0.00974225 0.00973994 8.64479e-06 0.00974127 1.71457e-07 272.828 
-0.25 -0.93 0.0133012 0.145814 0.00976327 0.00973992 1.32124e-05 0.00974802 1.71616e-07 272.765 
-0.25 -0.91 -0.259834 0.1152 0.00975782 0.00972774 1.45159e-05 0.00974241 1.715e-07 272.792 
-0.25 -0.89 -0.421016 0.193988 0.00975243 0.00972185 1.11374e-05 0.00973873 1.71287e-07 273.029 
-0.25 -0.87 -0.416876 0.181327 0.00974091 0.00971454 1.5866e-05 0.00973458 1.71214e-07 273.029 
-0.25 -0.85 -0.367335 0.327879 0.00975819 0.00971647 6.45043e-06 0.00974409 1.71331e-07 273.109 
-0.25 -0.83 -0.415094 0.135574 0.00975458 0.00970384 4.65198e-06 0.00974096 1.71277e-07 273.106 
-0.33 -0.81 -0.0328326 0.0944407 0.00975658 0.00970576 1.0462e-05 0.00972623 1.71268e-07 272.708 
-0.31 -0.81 -0.313428 0.239282 0.00977648 0.00971442 1.17156e-05 0.00974412 1.71316e-07 273.134 
-0.29 -0.81 -0.262018 0.0709071 0.00977791 0.0097185 7.83562e-06 0.00975104 1.71382e-07 273.223 
-0.27 -0.81 -0.330706 0.347173 0.00977457 0.00972252 9.5329e-06 0.00975452 1.71511e-07 273.114 
-0.31 -0.79 -0.206189 0.110534 0.00976083 0.00970903 3.55552e-06 0.00973553 1.71459e-07 272.666 
-0.29 -0.79 -0.389017 0.475686 0.00976109 0.00971593 6.33928e-06 0.00973255 1.71411e-07 272.658 
-0.33 -0.77 -0.380147 0.1428 0.00976959 0.00971987 1.36597e-05 0.00974513 1.71404e-07 273.021 
-0.27 -0.79 -0.542335 0.232623 0.00976201 0.00971439 1.62199e-05 0.00973761 1.71438e-07 272.757 
-0.31 -0.77 -0.262301 0.190161 0.00975921 0.00970062 1.19216e-05 0.0097308 1.71325e-07 272.746 
-0.29 -0.77 -0.262108 0.45082 0.0097599 0.00972043 9.53464e-06 0.00974142 1.71603e-07 272.601 
-0.27 -0.77 -0.358877 0.341842 0.00975818 0.00970294 8.34947e-06 0.00973252 1.71334e-07 272.78 
-0.31 -0.75 -0.141649 0.344102 0.00975878 0.0097113 6.88756e-06 0.00974518 1.71518e-07 272.842 
-0.29 -0.75 -0.505794 0.472526 0.00975757 0.00971442 1.24542e-05 0.00974105 1.71463e-07 272.813 
-0.27 -0.75 -0.593607 0.687342 0.00975897 0.00970639 1.58632e-05 0.00973209 1.71239e-07 272.919 
-0.49 -0.83 -0.0442134 0.288419 0.00976051 0.00971889 3.01651e-06 0.00974079 1.7157e-07 272.637 
-0.47 -0.83 -0.0140284 0.199272 0.00975899 0.00971727 2.42492e-06 0.00974131 1.71687e-07 272.465 
-0.45 -0.83 -0.0662016 0.141297 0.00975767 0.00972268 -4.21335e-06 0.00974393 1.71491e-07 272.85 
-0.49 -0.81 0.0688077 0.204292 0.00975879 0.00971885 -1.16223e-06 0.00974101 1.71464e-07 272.81 
-0.43 -0.83 -0.0614624 0.06714 0.00974631 0.00972079 3.75998e-06 0.00973305 1.71489e-07 272.547 
-0.47 -0.81 0.0408313 0.217232 0.00976218 0.00971955 -6.05873e-07 0.00975109 1.7159e-07 272.893 
-0.45 -0.81 0.0435961 0.125426 0.00976862 0.009722 3.13759e-06 0.00974663 1.71701e-07 272.592 
-0.49 -0.79 -0.0465628 0.329506 0.00975657 0.00971948 2.70818e-06 0.00973495 1.71311e-07 272.885 
-0.43 -0.81 -0.115413 0.280043 0.00977225 0.00971899 1.13558e-06 0.0097488 1.71859e-07 272.401 
-0.47 -0.79 -0.00642934 0.0512142 0.00975142 0.00971484 -7.07188e-06 0.00973712 1.71375e-07 272.844 
-0.41 -0.81 -0.263574 0.28401 0.00976387 0.00972114 1.07748e-05 0.0097474 1.71581e-07 272.803 
-0.45 -0.79 -0.0094647 0.298197 0.00975502 0.0097229 -2.90647e-06 0.0097395 1.71461e-07 272.773 
-0.49 -0.77 0.0794244 0.194679 0.00975389 0.00971609 3.65813e-06 0.00973644 1.71282e-07 272.972 
-0.39 -0.81 -0.219041 0.184768 0.0097515 0.00972583 1.58614e-05 0.00974768 1.71567e-07 272.834 
-0.43 -0.79 -0.287444 0.416476 0.00975926 0.00971251 2.6499e-06 0.00974048 1.71489e-07 272.757 
-0.47 -0.77 -0.00447393 0.254753 0.00975113 0.00972402 -6.13227e-07 0.00973853 1.71377e-07 272.88 
-0.37 -0.81 0.0917712 0.284802 0.00975183 0.00971365 7.94714e-06 0.00973312 1.71509e-07 272.518 
-0.41 -0.79 -0.372128 0.351638 0.00976036 0.00971756 1.00821e-05 0.00974433 1.71712e-07 272.509 
-0.45 -0.77 -0.34817 0.536698 0.00974683 0.00971912 -2.74161e-06 0.00973405 1.71399e-07 272.719 
-0.35 -0.81 0.0575412 0.176122 0.00974668 0.009715 4.18751e-06 0.00973564 1.71382e-07 272.79 
-0.39 -0.79 -0.220774 0.0453021 0.00976895 0.00972568 8.84743e-06 0.00974956 1.71771e-07 272.562 
-0.43 -0.77 -0.362404 0.516832 0.00973911 0.00970485 2.95892e-06 0.00972323 1.71293e-07 272.585 
-0.37 -0.79 -0.352262 0.241101 0.00977429 0.0097165 1.05181e-05 0.00974706 1.71572e-07 272.809 
-0.41 -0.77 -0.417764 0.126343 0.00974613 0.00971795 5.61662e-06 0.00973643 1.71516e-07 272.6 
-0.35 -0.79 -0.27376 0.114368 0.00976963 0.00971334 1.41761e-05 0.00974271 1.71631e-07 272.592 
-0.39 -0.77 -0.175609 0.151735 0.00974779 0.00972348 5.39182e-06 0.00974741 1.71583e-07 272.8 
-0.43 -0.75 0.037197 0.36127 0.00976471 0.00971251 -4.37296e-06 0.00973758 1.71384e-07 272.841 
-0.33 -0.79 -0.258507 0.28035 0.00976436 0.0097138 9.56606e-07 0.00973125 1.71474e-07 272.521 
-0.37 -0.77 -0.104142 0.242844 0.00975631 0.00971233 1.87587e-06 0.00973918 1.71492e-07 272.716 
-0.41 -0.75 -0.0079081 0.35491 0.00976752 0.00970951 1.91556e-06 0.0097474 1.71636e-07 272.717 
-0.35 -0.77 -0.337314 0.338997 0.00977049 0.00971942 5.66591e-06 0.00974686 1.71366e-07 273.13 
-0.39 -0.75 -0.251468 0.129993 0.00977332 0.00972445 2.92933e-06 0.00975199 1.71602e-07 272.898 
-0.49 -0.75 -0.0378946 0.160783 0.00974293 0.00972065 4.03064e-06 0.00973541 1.71072e-07 273.278 
-0.47 -0.75 -0.0965496 0.378725 0.00974978 0.00973453 -3.93141e-07 0.00973714 1.71178e-07 273.158 
-0.45 -0.75 -0.0885302 0.688966 0.00975283 0.00970568 -3.74338e-06 0.009725 1.71242e-07 272.716 
-0.49 -0.73 -0.0383332 0.36159 0.009774 0.00971992 5.83477e-06 0.00974727 1.71356e-07 273.159 
-0.47 -0.73 -0.238523 0.358149 0.00976766 0.00974302 1.70113e-06 0.00975174 1.7136e-07 273.276 
-0.45 -0.73 -0.110795 0.429207 0.00976401 0.00970749 -8.97537e-06 0.00973716 1.71465e-07 272.702 
-0.49 -0.71 -0.101978 0.543591 0.00977177 0.0097209 -2.8915e-08 0.00974289 1.7146e-07 272.87 
-0.43 -0.73 0.0209635 0.459218 0.0097562 0.00970854 -5.20709e-06 0.00973518 1.71409e-07 272.735 
-0.47 -0.71 -0.158755 0.469692 0.00977647 0.00973856 1.15792e-06 0.00975596 1.71643e-07 272.945 
-0.37 -0.75 -0.233562 0.196954 0.00975801 0.00971416 1.06212e-05 0.00973928 1.71511e-07 272.688 
-0.41 -0.73 0.00610104 0.378044 0.00975918 0.00970548 -3.46229e-06 0.00973706 1.7157e-07 272.531 
-0.45 -0.71 0.0161697 0.132287 0.00977131 0.00972038 3.22148e-06 0.00974702 1.7163e-07 272.715 
-0.49 -0.69 -0.00952964 0.54589 0.00977511 0.00971718 -7.56659e-06 0.0097472 1.71567e-07 272.82 
-0.35 -0.75 0.037208 0.257645 0.00974689 0.00971289 8.89401e-06 0.00973363 1.71348e-07 272.789 
-0.39 -0.73 0.0238825 0.110699 0.00975834 0.00971099 9.39571e-06 0.00973921 1.71297e-07 273.026 
-0.43 -0.71 -0.122139 0.382804 0.00976212 0.00971029 1.34768e-06 0.00974124 1.7154e-07 272.697 
-0.47 -0.69 0.185194 0.391112 0.00977799 0.00972791 2.65855e-06 0.00975189 1.71489e-07 273.076 
-0.37 -0.73 -0.028513 0.215104 0.00976808 0.00971908 1.08993e-05 0.00974719 1.71588e-07 272.787 
-0.41 -0.71 0.127756 0.451287 0.00976127 0.00969331 -4.10366e-06 0.00973259 1.71639e-07 272.297 
-0.45 -0.69 -0.0596996 0.354691 0.00978717 0.0097236 8.51041e-06 0.00975899 1.71818e-07 272.751 
-0.35 -0.73 -0.414834 0.377223 0.00976709 0.00971376 1.10479e-05 0.00974767 1.71536e-07 272.882 
-0.39 -0.71 0.000391299 0.142936 0.00976529 0.00971303 -4.38197e-07 0.00973725 1.71464e-07 272.705 
-0.43 -0.69 -0.156465 0.378119 0.00978582 0.00971792 3.91638e-06 0.0097592 1.71967e-07 272.52 
-0.33 -0.73 -0.419671 0.11803 0.00976731 0.00970655 1.34695e-05 0.00973972 1.71621e-07 272.525 
-0.37 -0.71 0.0122865 0.359814 0.00976197 0.0097132 1.34069e-05 0.00974531 1.71634e-07 272.66 
-0.41 -0.69 -0.0607922 0.164938 0.00977535 0.00970112 -1.03977e-07 0.00973859 1.71644e-07 272.458 
-0.35 -0.71 -0.235375 0.598138 0.00976138 0.00970718 4.50779e-06 0.00974854 1.71672e-07 272.691 
-0.39 -0.69 -0.0204355 0.272609 0.00976051 0.00969963 1.02934e-05 0.0097324 1.71483e-07 272.54 
-0.37 -0.69 -0.224561 0.533643 0.00976474 0.00970966 9.17223e-06 0.00974173 1.71411e-07 272.916 
-0.35 -0.69 -0.214493 0.721986 0.00976429 0.00970769 1.33929e-05 0.00973751 1.71375e-07 272.855 
-0.35 -0.67 -0.138239 0.682542 0.00977392 0.00972407 1.05928e-05 0.00974629 1.71407e-07 273.048 
-0.33 -0.67 -0.254492 0.740491 0.00975795 0.00970137 3.22083e-06 0.00974313 1.71503e-07 272.808 
-0.33 -0.75 0.0183593 0.113045 0.00974577 0.0097085 8.92982e-06 0.00973135 1.71393e-07 272.653 
-0.31 -0.73 -0.481145 0.515544 0.00976247 0.00971947 6.79829e-06 0.00974402 1.71464e-07 272.895 
-0.29 -0.73 -0.372654 0.69804 0.00976624 0.00969855 7.79673e-06 0.00973933 1.713e-07 273.025 
-0.33 -0.71 -0.505802 0.156809 0.00976392 0.00971198 1.5577e-05 0.0097454 1.71582e-07 272.745 
-0.27 -0.73 -0.498496 0.615919 0.00976615 0.00971971 1.16249e-05 0.00974737 1.71359e-07 273.156 
-0.31 -0.71 -0.420848 0.434185 0.00976356 0.00972397 1.09873e-05 0.00974788 1.71631e-07 272.738 
-0.29 -0.71 -0.365141 0.664547 0.00975558 0.00969598 1.12195e-05 0.00973378 1.71199e-07 273.03 
-0.33 -0.69 -0.289584 0.383105 0.00977792 0.00970881 -3.1447e-07 0.00974981 1.71761e-07 272.584 
-0.27 -0.71 -0.333567 0.628624 0.00975792 0.00970993 7.67278e-06 0.00973431 1.71162e-07 273.104 
-0.31 -0.69 -0.547534 0.374001 0.00978218 0.00972308 1.37706e-05 0.00976142 1.71787e-07 272.868 
-0.29 -0.69 -0.603137 0.658347 0.00977622 0.00970545 1.33625e-05 0.00974476 1.71497e-07 272.863 
-0.27 -0.69 -0.41031 0.538064 0.00978234 0.00971099 6.16693e-06 0.00975024 1.71327e-07 273.288 
-0.31 -0.67 -0.431329 0.515095 0.00975605 0.00970797 8.75996e-06 0.00973641 1.71535e-07 272.569 
-0.29 -0.67 -0.457496 0.513485 0.00976752 0.00971699 1.09022e-05 0.00974647 1.71491e-07 272.921 
-0.41 -0.83 -0.103403 0.271403 0.00975831 0.00972804 2.44666e-06 0.0097452 1.71611e-07 272.695 
-0.39 -0.83 -0.194914 0.396325 0.00975441 0.00972768 3.92423e-06 0.00973647 1.71405e-07 272.778 
-0.37 -0.83 -0.293408 0.268049 0.00974722 0.00971349 7.12826e-06 0.0097332 1.71263e-07 272.912 
-0.35 -0.83 -0.412087 0.0446094 0.00975262 0.00971754 1.52614e-05 0.00973318 1.71249e-07 272.933 
-0.33 -0.83 -0.139521 0.252037 0.00975226 0.00971157 1.5662e-05 0.00973091 1.71088e-07 273.127 
-0.31 -0.83 -0.0869589 -0.27122 0.00974757 0.00970521 1.34566e-05 0.00973558 1.71399e-07 272.761 
-0.29 -0.83 -0.424052 0.188685 0.00975622 0.0097183 1.65986e-05 0.00974719 1.71321e-07 273.211 
-0.27 -0.83 -0.457008 0.377026 0.00975745 0.00972075 2.96313e-06 0.00974868 1.71277e-07 273.324 
-0.27 -0.67 -0.52028 0.497124 0.00975388 0.00971143 1.47934e-05 0.00974072 1.71375e-07 272.944 
-0.25 -0.67 -0.378341 0.624404 0.00976213 0.00971755 5.38122e-06 0.00975316 1.71489e-07 273.111 
-0.25 -0.81 -0.456624 0.23447 0.00976113 0.00970897 6.32471e-06 0.00974372 1.71426e-07 272.946 
-0.25 -0.79 -0.464621 0.223751 0.00976695 0.00972125 1.88222e-05 0.00974654 1.71409e-07 273.052 
-0.35 -0.55 -0.269426 0.749688 0.00978407 0.00971313 4.47115e-06 0.0097492 1.71485e-07 273.007 
-0.39 -0.53 -0.123356 0.987004 0.00978131 0.00969159 2.92653e-06 0.00974596 1.71519e-07 272.862 
-0.37 -0.57 -0.356647 0.630575 0.0097759 0.00970164 5.19869e-06 0.00974593 1.71445e-07 272.979 
-0.41 -0.55 -0.0830774 0.914292 0.00975927 0.00970387 7.56397e-07 0.00973589 1.71506e-07 272.6 
-0.45 -0.53 0.0279313 0.63174 0.0097644 0.00969312 -1.98034e-06 0.00972579 1.71304e-07 272.639 
-0.35 -0.57 -0.31911 0.658182 0.00978079 0.00970698 2.06123e-05 0.00974556 1.71534e-07 272.827 
-0.39 -0.55 -0.146095 0.927391 0.00976347 0.00969353 7.10893e-06 0.00974315 1.71421e-07 272.94 
-0.43 -0.53 -0.129397 0.671307 0.00977472 0.00969882 5.09867e-06 0.00973666 1.71595e-07 272.48 
-0.47 -0.51 -0.226198 0.67137 0.00976492 0.00969351 -2.60028e-06 0.00973019 1.71485e-07 272.475 
-0.37 -0.55 -0.21463 0.680653 0.00976353 0.00968526 4.1547e-06 0.00973475 1.71202e-07 273.053 
-0.41 -0.53 -0.138452 0.889156 0.00978363 0.00970575 -4.15203e-06 0.00974752 1.71578e-07 272.812 
-0.45 -0.51 -0.351288 0.733545 0.00976623 0.00968897 1.26784e-07 0.0097328 1.71455e-07 272.595 
-0.37 -0.53 -0.149798 0.791918 0.00978368 0.00969525 2.04392e-07 0.00974055 1.71452e-07 272.817 
-0.41 -0.51 -0.321741 0.842693 0.00976243 0.00969857 -6.33672e-08 0.00973515 1.7142e-07 272.716 
-0.35 -0.53 -0.316541 0.838906 0.00976909 0.00970218 9.95607e-06 0.00973613 1.71432e-07 272.724 
-0.39 -0.51 -0.383633 0.933662 0.00976597 0.00969131 2.16651e-06 0.00973022 1.71381e-07 272.641 
-0.37 -0.51 -0.382458 0.906802 0.00976242 0.00968647 7.69123e-06 0.00972523 1.71242e-07 272.722 
-0.35 -0.51 -0.359442 0.843413 0.00976489 0.00969882 1.16863e-05 0.00972712 1.71307e-07 272.671 
-0.49 -0.65 0.13454 0.412242 0.00977329 0.00972208 9.38806e-06 0.00974708 1.71521e-07 272.89 
-0.47 -0.65 -0.0699411 0.44183 0.00977203 0.00972133 4.14717e-06 0.00974933 1.71618e-07 272.799 
-0.45 -0.65 -0.021632 0.526736 0.00976511 0.00972415 6.15045e-06 0.00974791 1.71777e-07 272.506 
-0.49 -0.63 -0.0670434 0.397716 0.00975829 0.00972516 3.78318e-06 0.00975119 1.7182e-07 272.531 
-0.43 -0.65 0.076946 0.670537 0.00974998 0.0096968 3.40262e-06 0.00973157 1.71365e-07 272.704 
-0.47 -0.63 -0.0524758 0.525006 0.00976076 0.00971753 -2.96552e-06 0.00974408 1.71681e-07 272.552 
-0.41 -0.65 -0.0166423 0.289328 0.00976364 0.00970251 1.00463e-05 0.00974077 1.71439e-07 272.844 
-0.45 -0.63 -0.0752208 0.512332 0.00977145 0.00971955 9.64788e-06 0.00974924 1.71646e-07 272.751 
-0.49 -0.61 -0.0549382 0.585935 0.0097688 0.00972185 -1.06806e-05 0.00974968 1.71633e-07 272.785 
-0.39 -0.65 -0.200289 0.373707 0.00976233 0.00971727 8.60895e-06 0.00974576 1.71393e-07 273.057 
-0.43 -0.63 -0.25427 0.618282 0.00978191 0.00970855 7.02066e-06 0.00974355 1.71401e-07 272.983 
-0.47 -0.61 -0.261566 0.497866 0.00977034 0.0097148 4.5974e-06 0.00974595 1.71587e-07 272.754 
-0.37 -0.65 -0.474619 0.513967 0.00976342 0.00969155 -1.4098e-06 0.00973034 1.71252e-07 272.849 
-0.41 -0.63 -0.321849 0.467658 0.00977434 0.00969154 1.55145e-06 0.00973618 1.71401e-07 272.775 
-0.45 -0.61 -0.298657 0.645674 0.00976711 0.00971468 -7.45546e-06 0.00974154 1.71429e-07 272.881 
-0.49 -0.59 -0.0422192 0.59438 0.00977452 0.00971019 -7.72185e-06 0.00975027 1.71619e-07 272.823 
-0.35 -0.65 -0.498841 0.531536 0.00977061 0.00972542 6.40657e-06 0.00975036 1.71635e-07 272.8 
-0.39 -0.63 -0.329606 0.661603 0.00978201 0.00971824 9.99246e-06 0.00974764 1.71565e-07 272.836 
-0.43 -0.61 -0.144866 0.754123 0.0097754 0.00970304 6.89765e-06 0.0097406 1.7135e-07 272.98 
-0.47 -0.59 -0.00153358 0.636787 0.00978026 0.00971554 -4.9443e-06 0.00975256 1.71696e-07 272.764 
-0.37 -0.63 -0.473298 0.624639 0.00976613 0.00969767 8.61499e-06 0.0097346 1.71414e-07 272.71 
-0.41 -0.61 -0.398568 0.483978 0.00977548 0.00970883 8.30067e-06 0.0097397 1.71332e-07 272.985 
-0.45 -0.59 -0.0295341 0.415218 0.00978191 0.00971393 2.03953e-07 0.0097538 1.71707e-07 272.782 
-0.49 -0.57 -0.00903681 0.540144 0.00978323 0.00970681 -1.0401e-05 0.0097415 1.7153e-07 272.719 
-0.35 -0.63 -0.514229 0.500026 0.00976268 0.00970805 6.90379e-06 0.00973603 1.71393e-07 272.785 
-0.39 -0.61 -0.387287 0.471706 0.00977442 0.00970014 3.46416e-06 0.00973597 1.71312e-07 272.911 
-0.43 -0.59 -0.00384066 0.837128 0.00977321 0.00969361 4.10229e-06 0.00974149 1.71585e-07 272.632 
-0.47 -0.57 0.0494146 0.640868 0.00977685 0.00971596 -6.39386e-06 0.00974443 1.71595e-07 272.698 
-0.37 -0.61 -0.201898 0.670445 0.00978145 0.00970853 1.40355e-05 0.00974359 1.71533e-07 272.773 
-0.41 -0.59 0.0640559 0.555096 0.00978056 0.0097092 2.30718e-06 0.00974341 1.71496e-07 272.828 
-0.45 -0.57 0.0310181 0.577601 0.00977466 0.00970198 2.51283e-06 0.00973925 1.7144e-07 272.8 
-0.49 -0.55 0.0134008 0.548544 0.00976088 0.00970305 -8.89846e-06 0.00973684 1.71499e-07 272.638 
-0.35 -0.61 -0.111837 0.563455 0.0097708 0.00970004 6.6999e-06 0.00973282 1.71282e-07 272.87 
-0.39 -0.59 -0.069283 0.547333 0.00977732 0.00968496 5.97155e-06 0.00973752 1.71343e-07 272.905 
-0.43 -0.57 0.0920576 0.636476 0.00977849 0.00969672 1.06756e-06 0.00974498 1.71434e-07 272.969 
-0.47 -0.55 -0.0359095 0.779964 0.0097749 0.00970247 -2.29905e-06 0.00974665 1.717e-07 272.593 
-0.33 -0.61 -0.40857 0.636588 0.00977227 0.00970126 1.73575e-05 0.00974234 1.71281e-07 273.139 
-0.37 -0.59 -0.151832 0.530887 0.00977819 0.00971584 1.8128e-05 0.00974832 1.71577e-07 272.836 
-0.41 -0.57 -0.0293255 0.719186 0.00977308 0.00970341 1.45866e-05 0.00973854 1.71415e-07 272.82 
-0.45 -0.55 -0.109417 0.388954 0.00976884 0.00969846 5.04013e-06 0.00973051 1.71369e-07 272.667 
-0.49 -0.53 0.0177887 0.603543 0.00976416 0.00969992 -3.086e-06 0.00973828 1.71499e-07 272.678 
-0.35 -0.59 -0.382985 0.668264 0.0097731 0.00970211 1.49601e-05 0.00973567 1.71481e-07 272.634 
-0.39 -0.57 -0.339688 0.815662 0.00977239 0.00968786 1.91054e-06 0.00974049 1.71353e-07 272.973 
-0.43 -0.55 -0.050424 0.651114 0.00976057 0.00969225 8.02808e-06 0.00973323 1.71445e-07 272.623 
-0.47 -0.53 0.031212 0.583032 0.00975581 0.00969253 -3.60198e-06 0.00972714 1.71356e-07 272.594 
-0.29 -0.57 -0.528222 0.588684 0.00977186 0.00970227 1.85938e-05 0.0097369 1.71306e-07 272.948 
-0.33 -0.55 -0.524227 0.920839 0.00979108 0.00971107 1.01636e-05 0.00974884 1.71543e-07 272.904 
-0.29 -0.61 -0.314832 0.719537 0.00975971 0.00971243 5.11145e-06 0.00973869 1.7148e-07 272.72 
-0.33 -0.59 -0.369431 0.934677 0.00976781 0.00970093 9.14375e-06 0.00973516 1.71223e-07 273.031 
-0.27 -0.61 -0.429014 0.477324 0.00976547 0.00970591 1.63079e-05 0.00973813 1.71474e-07 272.714 
-0.31 -0.59 -0.598188 0.793169 0.009775 0.00970851 1.13415e-05 0.00974269 1.71449e-07 272.882 
-0.29 -0.59 -0.392476 0.439136 0.00978309 0.00971169 1.62237e-05 0.00974488 1.71452e-07 272.939 
-0.33 -0.57 -0.374585 0.926286 0.00977977 0.00971003 1.01107e-05 0.00974257 1.71387e-07 272.978 
-0.27 -0.59 -0.347472 0.709045 0.00977105 0.00969361 1.54044e-05 0.00973165 1.71268e-07 272.861 
-0.31 -0.57 -0.334849 0.769817 0.00977579 0.0097011 3.13346e-06 0.00973801 1.71433e-07 272.777 
-0.27 -0.57 -0.664374 0.718448 0.0097698 0.00970066 2.84352e-05 0.00974668 1.71563e-07 272.812 
-0.31 -0.55 -0.283747 0.912974 0.00977349 0.00969695 2.39484e-05 0.00974188 1.7142e-07 272.906 
-0.29 -0.55 -0.455265 0.64182 0.00975597 0.00968617 2.31174e-05 0.00972167 1.71141e-07 272.782 
-0.33 -0.53 -0.156585 1.02023 0.00976328 0.00969326 1.6921e-05 0.00972792 1.71161e-07 272.926 
-0.27 -0.55 -0.32474 0.659221 0.0097587 0.0097065 1.72757e-05 0.00972769 1.71252e-07 272.774 
-0.31 -0.53 -0.306498 0.702158 0.00976728 0.00969906 2.80914e-05 0.0097433 1.71511e-07 272.8 
-0.29 -0.53 -0.335362 0.742942 0.00978642 0.00969232 2.28698e-05 0.00974701 1.71452e-07 272.999 
-0.33 -0.51 -0.260084 0.745617 0.00975714 0.00968357 2.38811e-05 0.00972575 1.71068e-07 273.014 
-0.27 -0.53 -0.520141 0.82529 0.00977714 0.00970779 2.30392e-05 0.00973732 1.71282e-07 272.997 
-0.31 -0.51 -0.194698 0.894837 0.00975723 0.00969868 1.79737e-05 0.00972556 1.7112e-07 272.926 
-0.29 -0.51 -0.29116 0.838994 0.0097459 0.00969062 2.23947e-05 0.00972802 1.71201e-07 272.865 
-0.27 -0.51 -0.44768 1.16556 0.00975288 0.00970537 2.8929e-05 0.00973269 1.712e-07 272.997 
-0.33 -0.65 -0.361342 0.552766 0.00977362 0.00970161 1.36164e-05 0.00974505 1.71427e-07 272.983 
-0.31 -0.65 -0.266438 0.801862 0.00977287 0.00970956 1.31171e-05 0.00974599 1.71447e-07 272.978 
-0.29 -0.65 -0.52449 0.608229 0.00975949 0.00970064 1.22952e-05 0.00973434 1.71288e-07 272.904 
-0.33 -0.63 -0.416683 0.609258 0.00975943 0.00970986 7.99369e-06 0.0097442 1.71556e-07 272.754 
-0.27 -0.65 -0.463674 0.450913 0.00977333 0.00972323 1.14856e-05 0.00975023 1.71539e-07 272.95 
-0.31 -0.63 -0.601016 0.791351 0.00975392 0.009697 1.165e-05 0.00973274 1.71223e-07 272.963 
-0.25 -0.65 -0.525796 0.456824 0.00976304 0.00971323 7.84062e-06 0.009746 1.716e-07 272.735 
-0.29 -0.63 -0.528996 0.497034 0.00977231 0.00971663 1.28952e-05 0.00974487 1.71523e-07 272.825 
-0.27 -0.63 -0.527334 0.505574 0.00975953 0.00971727 1.23474e-05 0.00974126 1.71659e-07 272.507 
-0.31 -0.61 -0.404395 0.665585 0.00977416 0.00970982 1.14617e-05 0.00974849 1.7159e-07 272.82 
-0.49 -0.67 0.016854 0.489797 0.00976982 0.00971478 -5.20041e-06 0.00974185 1.71408e-07 272.923 
-0.47 -0.67 0.070568 0.318254 0.00976564 0.00972465 -2.47885e-06 0.00974266 1.71548e-07 272.723 
-0.45 -0.67 0.0879919 0.539648 0.00976249 0.00972049 5.87384e-08 0.00974372 1.71552e-07 272.747 
-0.43 -0.67 -0.107242 0.488121 0.00977202 0.00971479 9.24521e-06 0.00974703 1.71618e-07 272.734 