ITEM: TIMESTEP
951500
ITEM: NUMBER OF CELLS
5000
ITEM: BOX BOUNDS ss ss pp
-0.5 0.5
-1 1
-0.5 0.5
ITEM: CELLS xc yc f_U[*] f_V[*] f_Tau[1] f_Tau[2] f_Tau[3] f_Press[*] f_Mrho[*] f_Ttra[*] 
-0.49 -0.99 -0.0747032 0.130464 0.00975695 0.00972647 1.47117e-05 0.00974468 1.71621e-07 272.663 
-0.47 -0.99 -0.172048 -0.0752281 0.00974127 0.00970709 9.77407e-06 0.00973024 1.71421e-07 272.578 
-0.45 -0.99 -0.152932 -0.0164367 0.00974375 0.00973046 1.51277e-06 0.0097434 1.71479e-07 272.854 
-0.49 -0.97 -0.0521568 0.148516 0.00973811 0.00971436 1.17116e-05 0.00972851 1.71305e-07 272.713 
-0.43 -0.99 -0.178592 -0.032953 0.00973596 0.00973096 3.98481e-06 0.00974251 1.71402e-07 272.952 
-0.47 -0.97 -0.0769467 0.0807827 0.00974634 0.00971481 1.25193e-05 0.00973441 1.7138e-07 272.759 
-0.41 -0.99 -0.0184269 -0.0254547 0.00973021 0.00971949 4.70562e-06 0.00972796 1.71251e-07 272.784 
-0.45 -0.97 -0.117571 -0.0280139 0.00974638 0.00973295 4.59e-06 0.00974519 1.71472e-07 272.916 
-0.49 -0.95 0.062731 0.10601 0.00973729 0.00970449 2.50938e-06 0.00972665 1.71168e-07 272.88 
-0.39 -0.99 -0.0921219 0.061212 0.00973547 0.00972177 -3.91214e-06 0.00972722 1.70991e-07 273.178 
-0.43 -0.97 0.0655559 0.00289743 0.00974731 0.00973068 3.43802e-06 0.00974299 1.71384e-07 272.993 
-0.47 -0.95 0.088289 0.141651 0.00975182 0.00972379 -1.13926e-06 0.00973422 1.71278e-07 272.916 
-0.37 -0.99 -0.18061 0.00666361 0.00973577 0.0097304 8.55541e-06 0.0097382 1.7137e-07 272.881 
-0.41 -0.97 -0.1048 -0.117658 0.00974253 0.00972092 6.80596e-06 0.00973216 1.71202e-07 272.979 
-0.45 -0.95 0.177864 -0.199731 0.00975375 0.00973535 6.82206e-06 0.00974858 1.71533e-07 272.913 
-0.49 -0.93 -0.00149478 -0.00539696 0.00976813 0.00971869 5.57572e-07 0.0097448 1.71428e-07 272.974 
-0.35 -0.99 -0.0422686 -0.133051 0.00972587 0.00970469 1.12948e-05 0.00971662 1.70921e-07 272.992 
-0.39 -0.97 0.0628399 0.0691925 0.00973264 0.0097194 8.06222e-06 0.00973439 1.71324e-07 272.848 
-0.43 -0.95 0.141397 -0.0197721 0.00975721 0.00972223 1.11347e-05 0.00974405 1.71464e-07 272.896 
-0.47 -0.93 0.117092 0.0072203 0.00975759 0.00971687 -3.20546e-07 0.00973729 1.71364e-07 272.866 
-0.33 -0.99 0.036116 0.0174571 0.00973618 0.00972977 5.78484e-06 0.00973099 1.71194e-07 272.96 
-0.37 -0.97 0.0845898 -0.0640547 0.00973346 0.00972744 1.71647e-06 0.00973767 1.71395e-07 272.826 
-0.41 -0.95 -0.0422225 0.0951814 0.00975374 0.00972668 5.54228e-06 0.00974157 1.71444e-07 272.858 
-0.45 -0.93 0.0293396 0.0800264 0.00975361 0.00972933 5.48137e-06 0.00974238 1.71505e-07 272.783 
-0.49 -0.91 0.0659331 0.0791245 0.0097652 0.00972401 1.1297e-05 0.00974366 1.71264e-07 273.203 
-0.35 -0.97 -0.0363326 -0.0861542 0.0097357 0.00971139 5.66516e-06 0.00972525 1.71107e-07 272.938 
-0.39 -0.95 -0.166168 -0.0532618 0.00975306 0.00972428 6.30649e-06 0.00974039 1.71521e-07 272.702 
-0.43 -0.93 -0.107605 0.027673 0.0097522 0.00971865 6.56937e-06 0.00972877 1.71172e-07 272.933 
-0.47 -0.91 -0.249839 -0.0490319 0.00976035 0.00971743 5.32494e-06 0.00973871 1.71402e-07 272.844 
-0.33 -0.97 -0.113535 -0.0607664 0.00973799 0.00972588 2.67601e-06 0.00973731 1.71385e-07 272.833 
-0.37 -0.95 -0.136438 -0.0597782 0.00975258 0.00971933 1.24752e-05 0.00974066 1.71359e-07 272.968 
-0.41 -0.93 -0.0841393 0.105495 0.00975486 0.00973001 1.55464e-05 0.00973397 1.71286e-07 272.898 
-0.45 -0.91 -0.0371658 0.0703013 0.00976435 0.00972258 6.75375e-06 0.00974588 1.71494e-07 272.899 
-0.49 -0.89 -0.100252 0.113829 0.0097617 0.00972324 7.12864e-06 0.00974529 1.71425e-07 272.992 
-0.35 -0.95 -0.112976 -0.0523515 0.0097553 0.00972026 2.6466e-06 0.00973923 1.71417e-07 272.835 
-0.39 -0.93 -0.0324119 -0.129986 0.00975094 0.00972447 7.42153e-06 0.00973777 1.71529e-07 272.616 
-0.43 -0.91 -0.148887 0.046732 0.00975583 0.00972455 1.00608e-05 0.00973776 1.71183e-07 273.168 
-0.47 -0.89 0.0821883 0.0916557 0.00975616 0.00972259 9.94896e-06 0.00974151 1.71475e-07 272.807 
-0.37 -0.93 -0.0202642 0.0122874 0.00975432 0.00972133 -8.50809e-08 0.00974233 1.71328e-07 273.065 
-0.41 -0.91 -0.026823 0.084038 0.00976397 0.00972067 4.5323e-06 0.00974152 1.71412e-07 272.909 
-0.45 -0.89 -0.227067 0.151238 0.00975349 0.00971464 -1.09976e-06 0.00973898 1.71296e-07 273.022 
-0.49 -0.87 -0.0294183 0.174124 0.00974247 0.00971325 -1.08604e-06 0.00972699 1.71288e-07 272.699 
-0.35 -0.93 -0.305891 0.0524848 0.00975898 0.00972177 2.82474e-06 0.00973438 1.71427e-07 272.685 
-0.39 -0.91 -0.135093 -0.058598 0.00977159 0.00973348 1.25933e-05 0.00975527 1.71728e-07 272.79 
-0.43 -0.89 -0.227112 -0.0189597 0.00976781 0.00973121 4.03905e-06 0.00975192 1.71454e-07 273.132 
-0.47 -0.87 0.0774295 0.125987 0.00975656 0.00972474 2.79275e-06 0.00973825 1.71446e-07 272.762 
-0.37 -0.91 -0.233107 0.138084 0.0097564 0.00972988 5.57772e-06 0.00974304 1.71681e-07 272.523 
-0.41 -0.89 -0.115223 0.0704988 0.00976292 0.00971558 2.55146e-06 0.0097435 1.71499e-07 272.824 
-0.45 -0.87 -0.103299 0.221314 0.00976107 0.00971588 5.96088e-06 0.00974662 1.71428e-07 273.026 
-0.49 -0.85 -0.00583259 0.192126 0.009753 0.00971662 -4.70804e-07 0.00973222 1.71273e-07 272.868 
-0.35 -0.91 -0.114354 0.145251 0.00974826 0.00971607 1.0932e-06 0.00973113 1.71313e-07 272.774 
-0.39 -0.89 -0.11899 0.119758 0.00975864 0.00972224 1.25247e-05 0.00974557 1.71511e-07 272.864 
-0.43 -0.87 -0.0520619 -0.00583 0.00974361 0.0097293 6.17985e-06 0.00974448 1.71448e-07 272.933 
-0.47 -0.85 -0.163462 0.263561 0.00974966 0.0097196 2.66733e-06 0.00974073 1.71391e-07 272.918 
-0.33 -0.91 -0.148678 -0.164453 0.00975035 0.00971435 1.13524e-05 0.00973359 1.71361e-07 272.767 
-0.37 -0.89 -0.245535 0.0667769 0.00976826 0.00974333 1.65314e-05 0.00975974 1.71643e-07 273.05 
-0.41 -0.87 -0.194245 0.086242 0.00974836 0.00971979 5.91584e-06 0.00973692 1.7145e-07 272.718 
-0.45 -0.85 -0.0550635 0.176263 0.00974816 0.0097094 6.82896e-06 0.00973452 1.71337e-07 272.832 
-0.35 -0.89 -0.330708 0.125286 0.00976402 0.00971319 1.23673e-05 0.00973067 1.71252e-07 272.858 
-0.39 -0.87 -0.179009 0.0900818 0.00975698 0.00971807 3.61461e-06 0.00973941 1.71523e-07 272.672 
-0.43 -0.85 -0.126753 0.0766769 0.00976478 0.00973396 1.67316e-06 0.00974611 1.71561e-07 272.799 
-0.37 -0.87 -0.183032 0.201102 0.00976744 0.00973581 1.00143e-05 0.00975153 1.71579e-07 272.922 
-0.41 -0.85 -0.117098 0.0856398 0.00976065 0.00971583 5.43751e-06 0.00974311 1.71568e-07 272.704 
-0.35 -0.87 -0.185209 0.134145 0.00976897 0.00971853 1.11602e-05 0.00973933 1.71285e-07 273.049 
-0.39 -0.85 -0.28507 0.319812 0.00976274 0.00972366 -3.02699e-06 0.00974751 1.71591e-07 272.791 
-0.33 -0.87 -0.412935 0.0317483 0.00977265 0.00972458 9.89111e-06 0.00974624 1.71419e-07 273.029 
-0.37 -0.85 -0.389625 0.0500317 0.00976152 0.0097209 4.68833e-06 0.00974273 1.71432e-07 272.91 
-0.35 -0.85 -0.309978 0.201745 0.00976415 0.00972363 1.22895e-05 0.00974131 1.71184e-07 273.266 
-0.33 -0.85 -0.423976 0.345616 0.00975914 0.00972336 1.03951e-05 0.00973695 1.71258e-07 273.024 
-0.31 -0.99 0.0896425 0.0110705 0.00972967 0.00970956 1.30594e-05 0.00972118 1.71144e-07 272.764 
-0.29 -0.99 -0.0585202 0.183866 0.00973191 0.00972061 1.24196e-05 0.00972853 1.7124e-07 272.817 
-0.27 -0.99 -0.103819 -0.110368 0.00974729 0.00973375 8.19461e-06 0.009736 1.71114e-07 273.229 
-0.31 -0.97 -0.298071 -0.0479946 0.00974873 0.00971538 4.57602e-06 0.00973613 1.71347e-07 272.86 
-0.29 -0.97 -0.226525 0.254036 0.00975904 0.00971916 9.55921e-06 0.00974674 1.7162e-07 272.723 
-0.33 -0.95 -0.124583 0.123472 0.00975153 0.00972164 5.7366e-06 0.0097361 1.71302e-07 272.931 
-0.27 -0.97 -0.158343 -0.049094 0.00975113 0.00972941 1.08429e-05 0.00974327 1.71491e-07 272.83 
-0.31 -0.95 -0.193684 0.129256 0.00974826 0.00971756 2.6569e-06 0.00973392 1.71349e-07 272.795 
-0.29 -0.95 -0.109156 -0.0579416 0.00974176 0.00970714 6.86418e-06 0.00972277 1.71257e-07 272.629 
-0.33 -0.93 -0.272796 0.0962308 0.0097615 0.00971995 2.95946e-06 0.00973608 1.71298e-07 272.938 
-0.27 -0.95 -0.210189 0.0539483 0.00974612 0.00973511 7.07108e-06 0.00974013 1.71433e-07 272.835 
-0.31 -0.93 -0.0623415 0.0320964 0.00975682 0.00971313 9.44259e-06 0.00973502 1.71519e-07 272.555 
-0.29 -0.93 -0.236751 0.0756654 0.00975714 0.00970981 7.77261e-06 0.00973365 1.71483e-07 272.575 
-0.27 -0.93 -0.138158 0.053131 0.00976288 0.00973036 7.23066e-06 0.00974941 1.7164e-07 272.765 
-0.31 -0.91 -0.19991 0.243196 0.0097555 0.00971467 6.73943e-06 0.00973841 1.71403e-07 272.836 
-0.29 -0.91 -0.257163 0.0302395 0.00975416 0.00971189 -4.77183e-07 0.00973184 1.71355e-07 272.727 
-0.33 -0.89 -0.289994 -0.104988 0.00975524 0.0097204 5.50016e-06 0.00973686 1.71266e-07 273.01 
-0.27 -0.91 -0.173435 -0.00435432 0.00975512 0.00972274 5.44917e-06 0.00973102 1.71454e-07 272.546 
-0.31 -0.89 -0.267485 0.211946 0.00976106 0.00971433 1.58946e-06 0.0097458 1.71556e-07 272.798 
-0.29 -0.89 -0.174706 -0.0529142 0.00976053 0.00971253 3.90657e-06 0.00974096 1.7133e-07 273.023 
-0.27 -0.89 -0.327157 0.181183 0.00975256 0.00971768 1.2229e-05 0.0097432 1.71469e-07 272.864 
-0.31 -0.87 -0.440924 0.0600233 0.00975906 0.00971877 5.32589e-06 0.00973731 1.71412e-07 272.79 
-0.29 -0.87 -0.353819 -0.0011392 0.00974855 0.00970539 9.75581e-06 0.00973229 1.71212e-07 272.967 
-0.27 -0.87 -0.368891 0.224364 0.00974756 0.00971778 1.09277e-05 0.00973867 1.71436e-07 272.79 
-0.31 -0.85 -0.452183 -0.150015 0.00975604 0.00971775 2.15923e-05 0.00973848 1.71395e-07 272.85 
-0.29 -0.85 -0.296581 0.0248167 0.00974958 0.00970522 1.30525e-05 0.00974183 1.71418e-07 272.907 
-0.27 -0.85 -0.399824 0.224361 0.00974923 0.00971363 8.96185e-06 0.00973853 1.71182e-07 273.191 
-0.25 -0.99 -0.230378 0.122126 0.009748 0.00974337 1.38089e-05 0.00974598 1.71421e-07 273.019 
-0.25 -0.97 -0.0809022 0.206651 0.00975147 0.00973798 5.80028e-06 0.00974647 1.71597e-07 272.753 
-0.25 -0.95 -0.32101 0.136723 0.00974378 0.00973815 1.03636e-05 0.00974289 1.71478e-07 272.84 
-0.25 -0.93 -0.0126695 0.104231 0.00975938 0.00973828 1.34528e-05 0.00974565 1.71627e-07 272.681 
-0.25 -0.91 -0.32311 0.0875804 0.00975566 0.0097284 1.30355e-05 0.00974318 1.71531e-07 272.765 
-0.25 -0.89 -0.408311 0.172505 0.00974999 0.00972234 1.25178e-05 0.00973725 1.71317e-07 272.94 
-0.25 -0.87 -0.427157 0.220115 0.00974464 0.00971419 1.85391e-05 0.0097368 1.71258e-07 273.021 
-0.25 -0.85 -0.397562 0.335362 0.00975775 0.00971757 1.00464e-05 0.00974564 1.71308e-07 273.189 
-0.25 -0.83 -0.464762 0.16537 0.00975318 0.00970879 4.64337e-06 0.00974367 1.71292e-07 273.16 
-0.33 -0.81 -0.099754 0.112629 0.00975705 0.009707 1.12577e-05 0.00972924 1.71278e-07 272.777 
-0.31 -0.81 -0.252431 0.237764 0.00977463 0.00971915 1.48473e-05 0.00974708 1.71318e-07 273.213 
-0.29 -0.81 -0.325062 0.170917 0.00977765 0.00972044 8.541e-06 0.00975124 1.71338e-07 273.298 
-0.27 -0.81 -0.418733 0.314547 0.0097753 0.00972221 1.07517e-05 0.00975634 1.71506e-07 273.173 
-0.31 -0.79 -0.325512 0.18666 0.0097566 0.00971452 4.17658e-06 0.00973609 1.71393e-07 272.785 
-0.29 -0.79 -0.365706 0.506728 0.0097617 0.00971823 6.32856e-06 0.00973628 1.71405e-07 272.772 
-0.33 -0.77 -0.406065 0.243175 0.00977346 0.00971946 1.32535e-05 0.0097476 1.71422e-07 273.063 
-0.27 -0.79 -0.539444 0.223985 0.00976307 0.00971113 1.64702e-05 0.00973829 1.71422e-07 272.801 
-0.31 -0.77 -0.295309 0.15531 0.00975975 0.00970508 1.10982e-05 0.00973339 1.71322e-07 272.824 
-0.29 -0.77 -0.297337 0.462148 0.00975387 0.00971794 1.02695e-05 0.00973703 1.7154e-07 272.578 
-0.27 -0.77 -0.330896 0.347485 0.00975246 0.00970569 7.49797e-06 0.00973244 1.71299e-07 272.833 
-0.31 -0.75 -0.23983 0.329657 0.00976125 0.00971665 9.59259e-06 0.00974735 1.7154e-07 272.867 
-0.29 -0.75 -0.515941 0.467296 0.00975944 0.00971369 1.48077e-05 0.00974221 1.71466e-07 272.842 
-0.27 -0.75 -0.545572 0.600177 0.0097589 0.00970865 1.43883e-05 0.00973372 1.71251e-07 272.945 
-0.49 -0.83 -0.0783541 0.285317 0.00975707 0.00971951 4.39234e-06 0.00973779 1.71476e-07 272.702 
-0.47 -0.83 -0.12787 0.23157 0.00975739 0.00971392 3.9314e-06 0.00973831 1.71674e-07 272.402 
-0.45 -0.83 -0.134722 0.212713 0.00975682 0.00972231 -1.29564e-06 0.00974223 1.71526e-07 272.746 
-0.49 -0.81 0.0266439 0.301273 0.00976085 0.00972116 1.84781e-06 0.0097422 1.71447e-07 272.871 
-0.43 -0.83 -0.122722 0.064865 0.00974745 0.00971593 1.76028e-06 0.00973275 1.71463e-07 272.581 
-0.47 -0.81 -0.0433692 0.209269 0.00976005 0.00971681 2.15501e-06 0.00974566 1.71497e-07 272.889 
-0.45 -0.81 -0.0264495 0.209081 0.00976671 0.00972197 3.84064e-06 0.00974607 1.71649e-07 272.658 
-0.49 -0.79 -0.021463 0.43066 0.00975465 0.00972071 3.87677e-06 0.00973658 1.71333e-07 272.894 
-0.43 -0.81 -0.112022 0.207424 0.00977144 0.00971607 -4.07948e-07 0.00974806 1.71833e-07 272.423 
-0.47 -0.79 -0.0044865 0.0920776 0.00975515 0.00971678 -3.89076e-06 0.00973983 1.71377e-07 272.916 
-0.41 -0.81 -0.2946 0.306132 0.0097625 0.00971978 7.94271e-06 0.00974633 1.71532e-07 272.851 
-0.45 -0.79 -0.0104081 0.281338 0.00975759 0.00972236 -2.28341e-06 0.00974015 1.71456e-07 272.8 
-0.49 -0.77 0.0921911 0.25681 0.00975102 0.0097188 3.50766e-06 0.0097364 1.71219e-07 273.072 
-0.39 -0.81 -0.301178 0.163026 0.00975209 0.00972134 1.32555e-05 0.00974475 1.71541e-07 272.792 
-0.43 -0.79 -0.312765 0.410344 0.00976113 0.00970841 3.10422e-06 0.00973736 1.71449e-07 272.732 
-0.47 -0.77 0.00414829 0.318141 0.0097515 0.00972332 -2.28191e-06 0.00973786 1.71352e-07 272.901 
-0.37 -0.81 -0.104308 0.294907 0.00975367 0.00971369 7.09205e-06 0.00973462 1.71506e-07 272.565 
-0.41 -0.79 -0.41001 0.38624 0.00976314 0.0097182 8.96999e-06 0.0097458 1.71679e-07 272.603 
-0.45 -0.77 -0.354818 0.4868 0.00975371 0.00972136 -1.88809e-06 0.00973932 1.7145e-07 272.786 
-0.35 -0.81 -0.021843 0.229381 0.00974357 0.00971412 2.38532e-06 0.00973223 1.71353e-07 272.741 
-0.39 -0.79 -0.30479 0.090886 0.00976834 0.00972261 7.13722e-06 0.0097488 1.71745e-07 272.582 
-0.43 -0.77 -0.354727 0.498609 0.00974576 0.00970321 1.90631e-06 0.00972563 1.71355e-07 272.553 
-0.37 -0.79 -0.372006 0.257701 0.0097701 0.00971333 7.76425e-06 0.00974583 1.71552e-07 272.805 
-0.41 -0.77 -0.394565 0.193561 0.00975098 0.0097148 5.06896e-06 0.00973725 1.71511e-07 272.631 
-0.35 -0.79 -0.293102 0.128855 0.00976706 0.00971557 1.52249e-05 0.00974361 1.71627e-07 272.624 
-0.39 -0.77 -0.184871 0.151075 0.00974978 0.00972107 8.20466e-06 0.00974607 1.71607e-07 272.725 
-0.43 -0.75 0.0355943 0.286921 0.00976249 0.00971397 -3.03408e-06 0.00974037 1.71456e-07 272.806 
-0.33 -0.79 -0.243655 0.212027 0.00975522 0.00970915 1.59371e-06 0.00972831 1.71377e-07 272.593 
-0.37 -0.77 -0.147349 0.281677 0.00975729 0.00971028 4.61514e-06 0.00973786 1.71467e-07 272.718 
-0.41 -0.75 -0.00908661 0.418296 0.00976373 0.0097041 3.40388e-06 0.00974298 1.71602e-07 272.646 
-0.35 -0.77 -0.368547 0.279278 0.00976958 0.00971933 6.45806e-06 0.00974617 1.71394e-07 273.067 
-0.39 -0.75 -0.285843 0.185214 0.00976993 0.009722 4.0374e-06 0.00974975 1.71587e-07 272.86 
-0.49 -0.75 -0.0788581 0.244381 0.00975103 0.00972362 4.62681e-06 0.0097398 1.71231e-07 273.148 
-0.47 -0.75 -0.0980633 0.425589 0.0097508 0.00973084 1.6325e-06 0.0097366 1.71235e-07 273.052 
-0.45 -0.75 -0.0976892 0.633139 0.00974913 0.00970489 -3.74786e-06 0.00972413 1.71276e-07 272.637 
-0.49 -0.73 -0.0469041 0.428184 0.00977031 0.00971987 6.3835e-06 0.00974676 1.71383e-07 273.1 
-0.47 -0.73 -0.211823 0.374037 0.00976999 0.00974156 3.34868e-06 0.00975329 1.71402e-07 273.254 
-0.45 -0.73 -0.163613 0.404786 0.00976698 0.00971009 -7.92849e-06 0.00973759 1.71459e-07 272.723 
-0.49 -0.71 -0.0942483 0.538981 0.0097728 0.00972082 1.23034e-06 0.00974228 1.71445e-07 272.877 
-0.43 -0.73 -0.0815587 0.380923 0.00975501 0.0097064 -1.50218e-06 0.00973406 1.71387e-07 272.738 
-0.47 -0.71 -0.153305 0.515088 0.00977573 0.00973703 -3.60971e-07 0.00975614 1.71634e-07 272.964 
-0.37 -0.75 -0.230472 0.202205 0.00975714 0.00971369 1.05064e-05 0.0097386 1.71499e-07 272.687 
-0.41 -0.73 -0.0465237 0.413998 0.00975789 0.00970246 -2.5474e-06 0.00973732 1.71579e-07 272.524 
-0.45 -0.71 0.0526105 0.124294 0.00977052 0.00971823 5.35092e-06 0.00974623 1.71582e-07 272.769 
-0.49 -0.69 0.021255 0.578181 0.00977428 0.00971647 -7.49594e-06 0.00974535 1.71521e-07 272.841 
-0.35 -0.75 -0.0735898 0.301276 0.00975158 0.00971497 7.01967e-06 0.00973624 1.71389e-07 272.797 
-0.39 -0.73 0.00673305 0.195332 0.00976001 0.00970891 9.65202e-06 0.00974 1.7136e-07 272.948 
-0.43 -0.71 -0.0848748 0.38097 0.00976785 0.00970767 2.00632e-06 0.009743 1.71536e-07 272.752 
-0.47 -0.69 0.117317 0.378698 0.00977518 0.00972625 4.20664e-06 0.00975132 1.71522e-07 273.007 
-0.37 -0.73 -0.180108 0.259679 0.00976881 0.00972359 9.2443e-06 0.00974917 1.71609e-07 272.808 
-0.41 -0.71 -0.001059 0.494605 0.00976616 0.00969189 -1.66881e-07 0.00973357 1.7158e-07 272.419 
-0.45 -0.69 -0.109147 0.287741 0.00978572 0.00972189 8.55398e-06 0.00975711 1.71759e-07 272.793 
-0.35 -0.73 -0.420376 0.463093 0.00976437 0.00971241 8.75072e-06 0.00974546 1.71546e-07 272.805 
-0.39 -0.71 -0.136494 0.214718 0.0097686 0.00971155 -1.80323e-06 0.00973893 1.71502e-07 272.692 
-0.43 -0.69 -0.199929 0.472796 0.00978315 0.00971316 5.01617e-06 0.00975597 1.71889e-07 272.554 
-0.33 -0.73 -0.393063 0.110654 0.00976587 0.00970326 1.32464e-05 0.00973683 1.71518e-07 272.608 
-0.37 -0.71 -0.0302763 0.35542 0.00976771 0.00971629 1.32088e-05 0.00974732 1.71597e-07 272.776 
-0.41 -0.69 -0.137303 0.262095 0.00977616 0.00970008 1.02399e-06 0.00973924 1.71624e-07 272.507 
-0.35 -0.71 -0.211893 0.632842 0.0097656 0.00970739 6.89186e-06 0.00974908 1.71656e-07 272.731 
-0.39 -0.69 -0.0509578 0.364883 0.00976232 0.00970139 8.33765e-06 0.00973335 1.71451e-07 272.617 
-0.37 -0.69 -0.293649 0.469983 0.00976397 0.00971093 7.35804e-06 0.00974189 1.71398e-07 272.941 
-0.35 -0.69 -0.298231 0.713444 0.00976849 0.00970889 1.38783e-05 0.00974169 1.7144e-07 272.867 
-0.35 -0.67 -0.171222 0.618985 0.00977538 0.00972125 8.87888e-06 0.00974766 1.71515e-07 272.916 
-0.33 -0.67 -0.210515 0.63281 0.0097627 0.00970412 4.09031e-06 0.00974489 1.71563e-07 272.763 
-0.33 -0.75 -0.0948972 0.187949 0.00975084 0.00970729 9.10405e-06 0.00973201 1.71309e-07 272.805 
-0.31 -0.73 -0.437688 0.496367 0.00976395 0.009722 1.01308e-05 0.00974498 1.71512e-07 272.845 
-0.29 -0.73 -0.315713 0.599723 0.00976807 0.00970334 1.02254e-05 0.00974326 1.71379e-07 273.008 
-0.33 -0.71 -0.548999 0.151924 0.00976411 0.00970919 1.43973e-05 0.00974376 1.71578e-07 272.707 
-0.27 -0.73 -0.505169 0.574296 0.00976781 0.00972055 1.46589e-05 0.00975223 1.7142e-07 273.196 
-0.31 -0.71 -0.397212 0.384615 0.00976415 0.00972347 9.51886e-06 0.00974948 1.71607e-07 272.821 
-0.29 -0.71 -0.444519 0.568547 0.00976044 0.00969897 1.28182e-05 0.00973828 1.71263e-07 273.054 
-0.33 -0.69 -0.345598 0.371893 0.00977984 0.00970997 3.42243e-07 0.00975327 1.71855e-07 272.532 
-0.27 -0.71 -0.399396 0.618601 0.00976715 0.00971514 9.84665e-06 0.00974201 1.71272e-07 273.144 
-0.31 -0.69 -0.556668 0.319341 0.00978291 0.00972105 1.1464e-05 0.00976084 1.71763e-07 272.891 
-0.29 -0.69 -0.568702 0.684513 0.00978101 0.00970598 1.24454e-05 0.00974839 1.71515e-07 272.936 
-0.27 -0.69 -0.387799 0.412325 0.00978388 0.0097133 7.79047e-06 0.00975016 1.71304e-07 273.322 
-0.31 -0.67 -0.443215 0.475767 0.00975919 0.00971143 1.02043e-05 0.00974 1.71505e-07 272.718 
-0.29 -0.67 -0.444081 0.467689 0.00976337 0.00971421 9.70822e-06 0.0097441 1.7143e-07 272.951 
-0.41 -0.83 -0.144165 0.254084 0.00975776 0.00972492 1.35253e-06 0.00974324 1.71543e-07 272.748 
-0.39 -0.83 -0.139551 0.338988 0.00975211 0.00972466 1.68707e-06 0.00973579 1.71436e-07 272.71 
-0.37 -0.83 -0.177394 0.284742 0.00974243 0.00971175 4.63729e-06 0.00972921 1.71218e-07 272.872 
-0.35 -0.83 -0.380069 0.0946956 0.00975009 0.00972018 1.3765e-05 0.009732 1.71248e-07 272.902 
-0.33 -0.83 -0.197109 0.293801 0.00975001 0.00971763 1.57162e-05 0.00973262 1.71156e-07 273.066 
-0.31 -0.83 -0.127219 -0.216677 0.00974491 0.00970928 1.52572e-05 0.00973558 1.71348e-07 272.843 
-0.29 -0.83 -0.405394 0.184866 0.00975313 0.00971939 1.84209e-05 0.00974704 1.71283e-07 273.268 
-0.27 -0.83 -0.496228 0.362835 0.00975277 0.00971781 5.40931e-06 0.00974671 1.71267e-07 273.284 
-0.27 -0.67 -0.474869 0.488098 0.00975399 0.00971324 1.4373e-05 0.00973962 1.71325e-07 272.993 
-0.25 -0.67 -0.43265 0.506334 0.0097638 0.009721 6.08797e-06 0.00975354 1.71506e-07 273.095 
-0.25 -0.81 -0.461106 0.240754 0.00976204 0.00971396 6.00386e-06 0.00974724 1.71477e-07 272.964 
-0.25 -0.79 -0.498418 0.200393 0.00976956 0.00972749 1.92282e-05 0.00975094 1.71463e-07 273.09 
-0.35 -0.55 -0.28673 0.665633 0.00978334 0.00971308 7.82093e-06 0.00974772 1.7149e-07 272.958 
-0.39 -0.53 -0.157439 0.987138 0.00977892 0.00969259 4.4503e-06 0.00974434 1.71492e-07 272.86 
-0.37 -0.57 -0.368802 0.663734 0.00977717 0.00970355 6.7386e-06 0.00974626 1.7138e-07 273.091 
-0.41 -0.55 -0.141072 0.990976 0.00976025 0.00970196 3.3228e-06 0.00973588 1.71535e-07 272.554 
-0.45 -0.53 -0.00825239 0.68142 0.00976394 0.00969585 -1.41492e-06 0.00972929 1.71327e-07 272.701 
-0.35 -0.57 -0.296341 0.654461 0.00978007 0.00970564 2.06607e-05 0.00974293 1.71478e-07 272.843 
-0.39 -0.55 -0.157118 0.889617 0.00976312 0.00969404 3.89315e-06 0.0097434 1.71462e-07 272.881 
-0.43 -0.53 -0.164782 0.733446 0.00977288 0.00969423 5.05769e-06 0.0097351 1.71507e-07 272.577 
-0.47 -0.51 -0.147453 0.718148 0.00976692 0.0096975 -3.53562e-06 0.00973204 1.71541e-07 272.437 
-0.37 -0.55 -0.26184 0.733269 0.00976325 0.00968663 6.66685e-06 0.009733 1.71174e-07 273.047 
-0.41 -0.53 -0.14075 0.837669 0.00977967 0.00970289 -3.43026e-06 0.00974339 1.71526e-07 272.778 
-0.45 -0.51 -0.315741 0.802723 0.00976743 0.00969051 2.24637e-06 0.00973355 1.71464e-07 272.601 
-0.37 -0.53 -0.133262 0.793943 0.00977987 0.0096932 1.45773e-06 0.0097398 1.7148e-07 272.751 
-0.41 -0.51 -0.299066 0.802525 0.00975946 0.00969706 -1.48234e-07 0.009733 1.71443e-07 272.621 
-0.35 -0.53 -0.317661 0.785414 0.00977011 0.00970227 1.00971e-05 0.00973677 1.71426e-07 272.753 
-0.39 -0.51 -0.353905 0.946081 0.00976543 0.00969027 8.77374e-07 0.00973284 1.7147e-07 272.572 
-0.37 -0.51 -0.413053 0.939803 0.00976249 0.00968624 8.32857e-06 0.00972647 1.7127e-07 272.712 
-0.35 -0.51 -0.453657 0.808443 0.0097646 0.00969881 1.04249e-05 0.00972896 1.71339e-07 272.672 
-0.49 -0.65 0.117903 0.417884 0.00977132 0.00971636 1.00935e-05 0.00974464 1.71433e-07 272.962 
-0.47 -0.65 -0.0414862 0.445517 0.00976925 0.00972076 3.49859e-06 0.00974868 1.71608e-07 272.797 
-0.45 -0.65 -0.00989827 0.508996 0.00976407 0.00972172 6.74842e-06 0.00974536 1.71687e-07 272.578 
-0.49 -0.63 -0.0114686 0.36035 0.00975852 0.00972113 1.3232e-06 0.00974666 1.71744e-07 272.524 
-0.43 -0.65 0.0678675 0.694531 0.00975646 0.00969545 5.38001e-06 0.00973208 1.71447e-07 272.587 
-0.47 -0.63 0.0184355 0.533313 0.00976285 0.00971454 -1.05469e-06 0.00974289 1.71673e-07 272.53 
-0.41 -0.65 0.0132576 0.440968 0.00976426 0.00970433 9.57529e-06 0.00973778 1.71433e-07 272.77 
-0.45 -0.63 -0.0400278 0.513943 0.00977071 0.00971824 9.06605e-06 0.00974808 1.7166e-07 272.697 
-0.49 -0.61 -0.0638185 0.495492 0.00976758 0.00971705 -8.47047e-06 0.00974833 1.71594e-07 272.808 
-0.39 -0.65 -0.190056 0.353894 0.00976063 0.00971392 5.83391e-06 0.00974379 1.71405e-07 272.983 
-0.43 -0.63 -0.185332 0.652463 0.00977982 0.00970727 6.63055e-06 0.00974051 1.71353e-07 272.973 
-0.47 -0.61 -0.256586 0.551754 0.00976645 0.0097118 3.72042e-06 0.00974349 1.71523e-07 272.786 
-0.37 -0.65 -0.382587 0.606175 0.00976211 0.00969784 -1.78049e-06 0.00973206 1.71278e-07 272.855 
-0.41 -0.63 -0.255515 0.565312 0.00977203 0.0096935 2.66315e-06 0.00973409 1.71412e-07 272.7 
-0.45 -0.61 -0.303071 0.623774 0.00976613 0.00971445 -9.46702e-06 0.00974055 1.71398e-07 272.904 
-0.49 -0.59 -0.132755 0.562397 0.00977629 0.00970516 -5.9625e-06 0.00974965 1.71668e-07 272.728 
-0.35 -0.65 -0.392208 0.502797 0.00977205 0.00972023 7.50592e-06 0.00974801 1.71598e-07 272.794 
-0.39 -0.63 -0.230255 0.657479 0.00978371 0.00971767 8.4877e-06 0.00974923 1.71585e-07 272.849 
-0.43 -0.61 -0.163416 0.769181 0.00977929 0.00970186 5.8375e-06 0.00974029 1.71344e-07 272.982 
-0.47 -0.59 -0.0225745 0.664493 0.00978643 0.00971928 -7.10057e-06 0.00975665 1.71707e-07 272.862 
-0.37 -0.63 -0.394773 0.557829 0.00976658 0.00969963 9.10179e-06 0.0097342 1.71384e-07 272.747 
-0.41 -0.61 -0.32317 0.57344 0.00978259 0.00970959 7.76061e-06 0.00974296 1.71436e-07 272.91 
-0.45 -0.59 -0.0460775 0.466726 0.00978653 0.0097146 -2.655e-06 0.00975419 1.71695e-07 272.813 
-0.49 -0.57 0.0160236 0.527237 0.00978346 0.00970451 -8.31168e-06 0.009742 1.71513e-07 272.761 
-0.35 -0.63 -0.409686 0.542244 0.00976017 0.00970723 6.15006e-06 0.00973564 1.71365e-07 272.817 
-0.39 -0.61 -0.233158 0.482752 0.0097778 0.00970156 4.43596e-06 0.00973729 1.71393e-07 272.819 
-0.43 -0.59 -0.064993 0.853364 0.00977253 0.00969339 2.62814e-06 0.00974247 1.71589e-07 272.653 
-0.47 -0.57 -0.0226776 0.630034 0.00977424 0.00971931 -7.8282e-06 0.00974243 1.71542e-07 272.726 
-0.37 -0.61 -0.121562 0.736567 0.00978257 0.0097066 1.43255e-05 0.00974326 1.71569e-07 272.707 
-0.41 -0.59 0.0104869 0.597832 0.0097776 0.00970631 1.55702e-06 0.00974086 1.71455e-07 272.821 
-0.45 -0.57 -0.0362342 0.644981 0.00977081 0.0097011 1.96629e-06 0.00973843 1.71377e-07 272.877 
-0.49 -0.55 -0.00345034 0.53093 0.00976107 0.00970381 -9.59201e-06 0.00973612 1.71461e-07 272.678 
-0.35 -0.61 -0.107117 0.536816 0.00977427 0.00970352 8.22204e-06 0.00973625 1.71366e-07 272.833 
-0.39 -0.59 -0.100506 0.531749 0.00977383 0.00968731 9.3203e-06 0.00973541 1.71386e-07 272.778 
-0.43 -0.57 0.0689265 0.675499 0.00977513 0.00969416 1.11563e-06 0.00974098 1.71406e-07 272.903 
-0.47 -0.55 -0.0412213 0.804797 0.00977183 0.00970333 -5.09174e-07 0.00974442 1.71665e-07 272.586 
-0.33 -0.61 -0.339662 0.626731 0.00976916 0.00970053 1.63733e-05 0.00973812 1.71291e-07 273.005 
-0.37 -0.59 -0.178974 0.62871 0.00977603 0.00971731 1.77798e-05 0.00974682 1.71541e-07 272.851 
-0.41 -0.57 -0.0817987 0.741174 0.00977002 0.00970122 1.39212e-05 0.00973818 1.71387e-07 272.853 
-0.45 -0.55 -0.155538 0.48078 0.00976574 0.00970008 5.64467e-06 0.00972969 1.71309e-07 272.74 
-0.49 -0.53 -0.00595077 0.554935 0.00975989 0.00969713 -2.78134e-06 0.00973489 1.71385e-07 272.765 
-0.35 -0.59 -0.346371 0.691009 0.00977064 0.00969929 1.36691e-05 0.00973083 1.71428e-07 272.583 
-0.39 -0.57 -0.377076 0.821517 0.00977222 0.00968784 4.26845e-06 0.00973929 1.71395e-07 272.873 
-0.43 -0.55 -0.129071 0.613723 0.00975936 0.009688 6.37538e-06 0.00972921 1.71388e-07 272.601 
-0.47 -0.53 -0.00342193 0.648488 0.00975511 0.00969684 -1.15165e-06 0.00972545 1.71321e-07 272.603 
-0.29 -0.57 -0.514911 0.627774 0.00977125 0.00970711 1.96244e-05 0.00974284 1.71379e-07 272.998 
-0.33 -0.55 -0.471867 0.88678 0.00978724 0.00971329 1.13726e-05 0.00975079 1.71601e-07 272.867 
-0.29 -0.61 -0.347013 0.694388 0.00976468 0.00972065 6.54753e-06 0.00974577 1.71617e-07 272.701 
-0.33 -0.59 -0.354673 0.907346 0.00977035 0.00970236 1.22587e-05 0.00973575 1.7121e-07 273.069 
-0.27 -0.61 -0.378853 0.490585 0.00977259 0.00970753 1.35824e-05 0.00974483 1.71593e-07 272.713 
-0.31 -0.59 -0.570459 0.692845 0.0097771 0.00971131 9.71647e-06 0.00974334 1.71481e-07 272.848 
-0.29 -0.59 -0.331491 0.46999 0.00978022 0.00971768 1.36549e-05 0.00974691 1.71528e-07 272.874 
-0.33 -0.57 -0.34682 0.901734 0.00977725 0.00971056 7.54744e-06 0.00974274 1.71371e-07 273.007 
-0.27 -0.59 -0.409161 0.632063 0.00976831 0.00969908 1.46845e-05 0.00973462 1.71352e-07 272.81 
-0.31 -0.57 -0.335169 0.688538 0.00977486 0.00970674 4.06574e-06 0.00974163 1.71445e-07 272.857 
-0.27 -0.57 -0.631682 0.681587 0.00976848 0.00970479 2.82537e-05 0.00974883 1.71581e-07 272.844 
-0.31 -0.55 -0.246823 0.885974 0.00976984 0.00970166 1.99447e-05 0.00974292 1.71498e-07 272.809 
-0.29 -0.55 -0.443674 0.646263 0.00975546 0.00969169 2.16798e-05 0.00972704 1.71294e-07 272.69 
-0.33 -0.53 -0.173904 0.949538 0.0097663 0.00970031 1.87653e-05 0.00973515 1.71249e-07 272.989 
-0.27 -0.55 -0.322123 0.628894 0.00975926 0.00971012 1.72477e-05 0.00973062 1.71314e-07 272.758 
-0.31 -0.53 -0.329994 0.753127 0.00976559 0.00970241 2.82873e-05 0.00974482 1.71515e-07 272.836 
-0.29 -0.53 -0.274036 0.662349 0.00978297 0.00970022 1.82822e-05 0.00975025 1.71522e-07 272.978 
-0.33 -0.51 -0.343756 0.721869 0.00976244 0.00968726 2.08078e-05 0.00972877 1.71087e-07 273.068 
-0.27 -0.53 -0.449908 0.861368 0.00977306 0.00970543 2.25571e-05 0.00973677 1.71256e-07 273.022 
-0.31 -0.51 -0.274312 0.885439 0.00976811 0.009706 1.76497e-05 0.00973293 1.71261e-07 272.908 
-0.29 -0.51 -0.417338 0.799111 0.00975467 0.00969802 2.54012e-05 0.00973375 1.7135e-07 272.789 
-0.27 -0.51 -0.528571 1.17807 0.009756 0.00969991 3.09545e-05 0.00973292 1.71249e-07 272.927 
-0.33 -0.65 -0.356385 0.492359 0.00977496 0.00970348 1.45218e-05 0.00974309 1.71442e-07 272.903 
-0.31 -0.65 -0.231761 0.724094 0.00977431 0.0097153 1.42484e-05 0.00974863 1.71478e-07 273.001 
-0.29 -0.65 -0.505815 0.557246 0.00976363 0.00970165 1.09943e-05 0.00973597 1.71248e-07 273.013 
-0.33 -0.63 -0.337635 0.54409 0.00976018 0.00970957 5.75875e-06 0.0097438 1.71566e-07 272.726 
-0.27 -0.65 -0.538504 0.415255 0.00977494 0.0097219 8.79804e-06 0.00975036 1.71494e-07 273.025 
-0.31 -0.63 -0.527327 0.678551 0.00975835 0.00970109 1.30174e-05 0.00973561 1.71307e-07 272.909 
-0.25 -0.65 -0.552076 0.3966 0.00976627 0.00971677 7.29629e-06 0.00974762 1.71603e-07 272.774 
-0.29 -0.63 -0.468405 0.472836 0.00977199 0.0097224 1.36994e-05 0.00974607 1.71557e-07 272.805 
-0.27 -0.63 -0.472283 0.502132 0.00976017 0.00971338 1.01507e-05 0.00973767 1.71567e-07 272.553 
-0.31 -0.61 -0.341356 0.587773 0.00977072 0.00970941 1.14118e-05 0.00974753 1.71616e-07 272.752 
-0.49 -0.67 0.0160968 0.495711 0.00977455 0.00971355 -4.25343e-06 0.00974315 1.71483e-07 272.841 
-0.47 -0.67 0.0519978 0.388322 0.00977142 0.00972193 6.45163e-07 0.00974672 1.71568e-07 272.806 
-0.45 -0.67 0.112034 0.488572 0.00976778 0.00971994 2.03659e-06 0.00974652 1.71572e-07 272.792 