ITEM: TIMESTEP
1100000
ITEM: NUMBER OF CELLS
5000
ITEM: BOX BOUNDS ss ss pp
-0.5 0.5
-1 1
-0.5 0.5
ITEM: CELLS xc yc f_U[*] f_V[*] f_Tau[1] f_Tau[2] f_Tau[3] f_Press[*] f_Mrho[*] f_Ttra[*] 
-0.49 -0.99 -0.0279888 0.079213 0.00976265 0.00973496 7.71972e-06 0.00974802 1.71505e-07 272.942 
-0.47 -0.99 -0.130932 0.0342538 0.00974735 0.0097173 5.44324e-06 0.00973777 1.71394e-07 272.831 
-0.45 -0.99 -0.211022 -0.00430544 0.00974883 0.00972635 4.71932e-06 0.00974393 1.71387e-07 273.016 
-0.49 -0.97 -0.0609839 0.14084 0.00974507 0.00972306 7.87843e-06 0.00973329 1.71283e-07 272.883 
-0.43 -0.99 -0.223258 -0.0685803 0.00974543 0.00971899 3.91366e-06 0.00973848 1.71285e-07 273.025 
-0.47 -0.97 -0.0976099 0.0819129 0.0097486 0.00972065 1.249e-05 0.00973766 1.71331e-07 272.929 
-0.41 -0.99 -0.0517111 -0.0494485 0.00974077 0.00972773 2.24363e-06 0.00973976 1.71312e-07 273.018 
-0.45 -0.97 -0.0586695 0.0417642 0.00974521 0.00972948 4.44989e-06 0.00974307 1.71403e-07 272.965 
-0.49 -0.95 0.0539579 0.115654 0.00973618 0.00971306 1.8823e-06 0.00972933 1.71207e-07 272.893 
-0.39 -0.99 -0.0913527 0.0932391 0.00974426 0.00972727 2.70761e-06 0.00973779 1.71204e-07 273.134 
-0.43 -0.97 -0.0315276 0.0293464 0.00974679 0.00971881 3.60928e-06 0.00973841 1.71277e-07 273.035 
-0.47 -0.95 0.0935794 0.0839923 0.00974837 0.0097243 2.19388e-06 0.00973892 1.71392e-07 272.866 
-0.37 -0.99 -0.149792 -0.00656217 0.00974424 0.00973085 7.7049e-06 0.00973941 1.71278e-07 273.063 
-0.41 -0.97 -0.199385 -0.177031 0.00974502 0.00972913 4.00138e-06 0.00974038 1.71362e-07 272.956 
-0.45 -0.95 0.13368 -0.0427975 0.00975561 0.00973258 6.09968e-06 0.00975133 1.71578e-07 272.918 
-0.49 -0.93 0.00351424 0.0517715 0.00976278 0.00971833 6.34883e-07 0.00974456 1.71436e-07 272.954 
-0.35 -0.99 -0.158596 -0.0517335 0.00973937 0.00971227 3.02446e-06 0.00972443 1.71159e-07 272.831 
-0.39 -0.97 -0.0485832 0.0182907 0.00974208 0.009726 6.39389e-06 0.00973809 1.71348e-07 272.913 
-0.43 -0.95 0.120728 0.0381584 0.00975541 0.00971646 5.35295e-06 0.00974272 1.71427e-07 272.917 
-0.47 -0.93 0.0198776 0.0614839 0.00975553 0.00972075 7.34789e-07 0.00974386 1.71522e-07 272.799 
-0.33 -0.99 -0.107969 0.00368387 0.00973887 0.00972951 5.02865e-06 0.00973326 1.71302e-07 272.852 
-0.37 -0.97 -0.0114526 0.0331307 0.00973904 0.0097287 3.64636e-06 0.00973915 1.71294e-07 273.029 
-0.41 -0.95 0.0253765 0.0389581 0.00975571 0.00973147 3.50693e-06 0.00974515 1.71533e-07 272.816 
-0.45 -0.93 -0.040921 0.0547472 0.00975492 0.00972829 6.35807e-06 0.00974483 1.71515e-07 272.836 
-0.49 -0.91 -0.0358707 0.16603 0.00976706 0.00972188 9.24363e-06 0.00974787 1.71403e-07 273.099 
-0.35 -0.97 -0.0216014 -0.00921743 0.00973921 0.00971769 8.65063e-06 0.00973288 1.7126e-07 272.908 
-0.39 -0.95 -0.211013 -0.0176072 0.00975223 0.0097248 7.75153e-06 0.00973829 1.71396e-07 272.843 
-0.43 -0.93 -0.073483 0.0714593 0.00975246 0.00972218 2.74436e-06 0.00973663 1.71358e-07 272.857 
-0.47 -0.91 -0.226365 0.0657677 0.00976232 0.00972182 6.59162e-06 0.00974326 1.71499e-07 272.819 
-0.33 -0.97 -0.0886737 -0.00399351 0.00974066 0.00972425 5.61207e-06 0.00973792 1.71438e-07 272.765 
-0.37 -0.95 -0.19094 -0.0422468 0.00975206 0.00972417 1.15902e-05 0.00974004 1.7132e-07 273.012 
-0.41 -0.93 -0.124925 0.0864884 0.00974978 0.00972534 8.17332e-06 0.00973291 1.71253e-07 272.92 
-0.45 -0.91 -0.118027 0.0427854 0.00976106 0.009723 6.12554e-06 0.00974735 1.71512e-07 272.911 
-0.49 -0.89 -0.0098844 0.155189 0.00976814 0.00972408 1.02355e-05 0.00974737 1.71444e-07 273.021 
-0.35 -0.95 -0.100577 -0.0166363 0.00975237 0.00972158 4.05816e-06 0.00974063 1.71391e-07 272.916 
-0.39 -0.93 -0.0401386 0.0080704 0.00974883 0.00972343 7.57471e-06 0.00973954 1.71517e-07 272.685 
-0.43 -0.91 -0.192366 0.0636911 0.00975806 0.0097287 7.09351e-06 0.00974269 1.71303e-07 273.115 
-0.47 -0.89 0.0850273 0.141358 0.00976488 0.00972545 6.38237e-06 0.00974439 1.71563e-07 272.748 
-0.37 -0.93 -0.0619218 -0.00398946 0.00975531 0.00972656 3.07858e-06 0.00974545 1.71439e-07 272.974 
-0.41 -0.91 -0.0516566 0.0200067 0.009764 0.00971706 3.30575e-06 0.00974075 1.71304e-07 273.058 
-0.45 -0.89 -0.0536132 0.157122 0.00976088 0.0097196 3.92905e-06 0.00974444 1.71418e-07 272.98 
-0.49 -0.87 -0.0332195 0.202142 0.00974855 0.00971238 -1.50715e-06 0.00973056 1.71227e-07 272.895 
-0.35 -0.93 -0.258776 -0.0139475 0.00975743 0.00972261 9.23691e-06 0.0097406 1.71465e-07 272.798 
-0.39 -0.91 -0.0645153 -0.0386755 0.0097684 0.00972934 1.06535e-05 0.00975279 1.716e-07 272.924 
-0.43 -0.89 -0.0708637 -0.0276969 0.00976489 0.00973431 5.33121e-06 0.00975058 1.71469e-07 273.07 
-0.47 -0.87 0.051605 0.143731 0.00975861 0.00972858 7.44206e-06 0.00974131 1.71378e-07 272.955 
-0.37 -0.91 -0.151363 0.187423 0.0097558 0.00972294 6.80678e-06 0.00973913 1.71532e-07 272.65 
-0.41 -0.89 -0.0990109 -0.0174896 0.00975871 0.00971371 5.1169e-06 0.00974397 1.71507e-07 272.825 
-0.45 -0.87 -0.129107 0.133798 0.0097642 0.00971844 7.48868e-06 0.00974629 1.7142e-07 273.028 
-0.49 -0.85 -0.0640504 0.205155 0.00975623 0.00971279 -1.70555e-06 0.00973344 1.71242e-07 272.953 
-0.35 -0.91 -0.0822229 0.0792943 0.00975183 0.00972533 3.5841e-06 0.00973877 1.71421e-07 272.816 
-0.39 -0.89 -0.0624335 0.106611 0.00975386 0.009722 8.87066e-06 0.00974555 1.7148e-07 272.912 
-0.43 -0.87 -0.139378 0.0934204 0.00975415 0.00973337 9.31631e-06 0.00974825 1.71536e-07 272.899 
-0.47 -0.85 -0.152392 0.215564 0.00975486 0.00971922 4.13923e-07 0.00974139 1.71354e-07 272.997 
-0.33 -0.91 -0.177436 0.0117111 0.00975814 0.00971867 1.09102e-05 0.00974124 1.71381e-07 272.949 
-0.37 -0.89 -0.129395 0.0862657 0.00976186 0.00973278 1.31039e-05 0.00975383 1.71602e-07 272.95 
-0.41 -0.87 -0.208485 -0.0206245 0.00976007 0.00971567 4.91511e-06 0.00974449 1.71551e-07 272.77 
-0.45 -0.85 -0.0771285 0.147839 0.00975933 0.00971586 5.3563e-06 0.00974314 1.71349e-07 273.053 
-0.35 -0.89 -0.215339 0.169806 0.00976233 0.00972166 7.50945e-06 0.00973905 1.71393e-07 272.869 
-0.39 -0.87 -0.293939 0.131195 0.00976839 0.00971989 4.63396e-06 0.0097494 1.71594e-07 272.839 
-0.43 -0.85 -0.150898 0.152653 0.00976935 0.00973681 6.21749e-06 0.00974999 1.71611e-07 272.828 
-0.37 -0.87 -0.348857 0.176831 0.00976981 0.0097294 7.527e-06 0.00975252 1.71617e-07 272.889 
-0.41 -0.85 -0.195516 0.0817576 0.0097642 0.00971729 6.626e-06 0.00974491 1.71577e-07 272.739 
-0.35 -0.87 -0.259969 0.113312 0.00976795 0.00972228 1.04982e-05 0.00974404 1.71439e-07 272.935 
-0.39 -0.85 -0.260342 0.307038 0.00976136 0.00971902 3.01799e-06 0.00974734 1.71608e-07 272.759 
-0.33 -0.87 -0.261668 0.141397 0.00976328 0.00972149 1.24587e-05 0.00974637 1.71508e-07 272.891 
-0.37 -0.85 -0.285414 0.00479319 0.00976427 0.00972477 8.73712e-06 0.00974587 1.71492e-07 272.901 
-0.35 -0.85 -0.275164 0.119656 0.00976492 0.00971953 1.06651e-05 0.00974274 1.71378e-07 272.996 
-0.33 -0.85 -0.378692 0.315825 0.00976542 0.00972228 1.28559e-05 0.00974178 1.71401e-07 272.933 
-0.31 -0.99 -0.00914049 -0.0606745 0.00973261 0.00971292 1.23564e-05 0.0097213 1.71205e-07 272.67 
-0.29 -0.99 -0.0888797 0.0542965 0.00973416 0.0097162 6.68357e-06 0.00972845 1.71166e-07 272.933 
-0.27 -0.99 -0.15162 0.0141114 0.00974816 0.00973047 6.53691e-06 0.0097394 1.71218e-07 273.158 
-0.31 -0.97 -0.353895 -0.0437606 0.00974802 0.00971899 5.06353e-06 0.00973488 1.71332e-07 272.85 
-0.29 -0.97 -0.426801 0.253285 0.00975221 0.00971927 7.122e-06 0.00974352 1.71457e-07 272.893 
-0.33 -0.95 -0.0975692 0.128024 0.00975021 0.00972551 8.97759e-06 0.00973882 1.71333e-07 272.959 
-0.27 -0.97 -0.313188 -0.118386 0.00974102 0.00972402 8.18366e-06 0.00973549 1.71332e-07 272.867 
-0.31 -0.95 -0.193527 0.194301 0.0097447 0.00971698 7.09541e-06 0.00972765 1.71235e-07 272.8 
-0.29 -0.95 -0.152551 0.153738 0.00973992 0.00971184 7.39925e-06 0.00972573 1.71202e-07 272.8 
-0.33 -0.93 -0.310886 0.163792 0.0097575 0.00972149 4.51257e-06 0.0097374 1.71336e-07 272.913 
-0.27 -0.95 -0.32011 -0.0848887 0.00974675 0.00972937 4.81737e-06 0.00973788 1.71334e-07 272.93 
-0.31 -0.93 -0.0904069 0.0628224 0.00975819 0.00971752 9.12592e-06 0.0097369 1.71479e-07 272.672 
-0.29 -0.93 -0.179469 0.227879 0.00976087 0.00971627 8.46835e-06 0.00974156 1.71491e-07 272.782 
-0.27 -0.93 -0.172137 0.0865226 0.00975649 0.00972378 7.12725e-06 0.00974325 1.71494e-07 272.825 
-0.31 -0.91 -0.237298 0.128738 0.00975877 0.00971791 1.01272e-05 0.00974051 1.71436e-07 272.841 
-0.29 -0.91 -0.211147 0.154674 0.00975487 0.00971735 4.16798e-06 0.00973494 1.71419e-07 272.712 
-0.33 -0.89 -0.247653 0.0561112 0.009756 0.0097202 5.54126e-06 0.00974068 1.71339e-07 273.001 
-0.27 -0.91 -0.125736 0.120689 0.00975652 0.00972402 6.19247e-06 0.0097393 1.71505e-07 272.698 
-0.31 -0.89 -0.194181 0.149811 0.00975752 0.00971724 5.08779e-06 0.00974199 1.7144e-07 272.877 
-0.29 -0.89 -0.195291 0.0292293 0.00975624 0.00971735 9.65673e-06 0.00973888 1.7131e-07 272.995 
-0.27 -0.89 -0.26602 0.21412 0.00975233 0.0097224 1.0953e-05 0.00974129 1.71427e-07 272.877 
-0.31 -0.87 -0.437784 0.202303 0.00976018 0.00971761 8.05104e-06 0.00974098 1.71452e-07 272.829 
-0.29 -0.87 -0.430105 0.0852223 0.00975693 0.00971191 1.00242e-05 0.00973967 1.71357e-07 272.944 
-0.27 -0.87 -0.420333 0.205946 0.00975657 0.00972305 1.24767e-05 0.00974335 1.71388e-07 272.998 
-0.31 -0.85 -0.339635 0.0849611 0.00976281 0.00971882 1.44109e-05 0.00974511 1.7141e-07 273.011 
-0.29 -0.85 -0.261385 0.177637 0.00975743 0.00971228 1.29887e-05 0.00974298 1.71455e-07 272.88 
-0.27 -0.85 -0.353602 0.127919 0.00975732 0.0097222 1.26639e-05 0.0097429 1.71276e-07 273.162 
-0.25 -0.99 -0.240808 0.0968452 0.00975143 0.00973877 1.06395e-05 0.00974704 1.71379e-07 273.116 
-0.25 -0.97 -0.230165 0.0751392 0.00974185 0.00972878 1.02079e-05 0.00973715 1.71355e-07 272.877 
-0.25 -0.95 -0.42242 0.0650579 0.00974716 0.00972851 8.46421e-06 0.00973851 1.71338e-07 272.941 
-0.25 -0.93 -0.179826 0.0839078 0.00975552 0.00973024 8.45342e-06 0.00974098 1.7148e-07 272.784 
-0.25 -0.91 -0.239393 0.0696191 0.00975444 0.00972938 6.9189e-06 0.0097453 1.71603e-07 272.71 
-0.25 -0.89 -0.285838 0.204937 0.00974994 0.00972455 1.30862e-05 0.00973835 1.71416e-07 272.813 
-0.25 -0.87 -0.433149 0.212992 0.00975207 0.00972292 1.57897e-05 0.00973966 1.71349e-07 272.956 
-0.25 -0.85 -0.291698 0.236719 0.00976247 0.00972298 1.19546e-05 0.00974749 1.71452e-07 273.011 
-0.25 -0.83 -0.404048 0.175355 0.00976487 0.00971905 9.45448e-06 0.00974579 1.71443e-07 272.978 
-0.33 -0.81 -0.154397 0.173413 0.00976202 0.0097111 9.24776e-06 0.00973896 1.71381e-07 272.886 
-0.31 -0.81 -0.275229 0.247304 0.00977579 0.00972321 1.28225e-05 0.00975093 1.71492e-07 273.043 
-0.29 -0.81 -0.276318 0.181422 0.00977729 0.00972287 6.8665e-06 0.00975308 1.71521e-07 273.058 
-0.27 -0.81 -0.339566 0.219797 0.00977436 0.00972178 1.2193e-05 0.00975359 1.71554e-07 273.019 
-0.31 -0.79 -0.217116 0.149839 0.00976029 0.00972123 4.25483e-06 0.00973949 1.71457e-07 272.779 
-0.29 -0.79 -0.235707 0.380343 0.00976009 0.00972036 1.11005e-05 0.00974029 1.71445e-07 272.821 
-0.33 -0.77 -0.320696 0.316198 0.00977062 0.0097214 1.42691e-05 0.0097456 1.71523e-07 272.846 
-0.27 -0.79 -0.337562 0.217209 0.00976297 0.00971589 1.00394e-05 0.00974122 1.71454e-07 272.832 
-0.31 -0.77 -0.273443 0.134109 0.00976421 0.00971564 1.16729e-05 0.00974065 1.7142e-07 272.87 
-0.29 -0.77 -0.23786 0.368551 0.00975985 0.00971851 7.55811e-06 0.00973904 1.71453e-07 272.773 
-0.27 -0.77 -0.275136 0.202832 0.00975751 0.00971443 7.30895e-06 0.00973774 1.71352e-07 272.898 
-0.31 -0.75 -0.176745 0.333852 0.00976846 0.00971801 9.90058e-06 0.00974803 1.7156e-07 272.855 
-0.29 -0.75 -0.482443 0.315916 0.00976944 0.00972207 1.22479e-05 0.0097496 1.71581e-07 272.864 
-0.27 -0.75 -0.517392 0.47778 0.00976919 0.00971082 1.59161e-05 0.00973817 1.71414e-07 272.81 
-0.49 -0.83 0.0207746 0.278158 0.00975436 0.00971381 -8.05653e-07 0.00973629 1.71356e-07 272.851 
-0.47 -0.83 -0.0552229 0.175523 0.00975638 0.0097158 1.07302e-06 0.00973797 1.7151e-07 272.652 
-0.45 -0.83 -0.0985417 0.240399 0.00975396 0.00971717 -1.00413e-06 0.00973703 1.71332e-07 272.91 
-0.49 -0.81 -0.0152141 0.303085 0.00976365 0.00971893 2.5126e-06 0.00974022 1.71446e-07 272.818 
-0.43 -0.83 -0.14123 0.237836 0.00975539 0.00972479 3.01036e-06 0.0097416 1.71399e-07 272.93 
-0.47 -0.81 -0.11793 0.245864 0.00976037 0.00971382 -4.28888e-07 0.00974145 1.71498e-07 272.769 
-0.45 -0.81 -0.0898472 0.237842 0.00976499 0.00972185 5.04074e-07 0.00974417 1.71467e-07 272.894 
-0.49 -0.79 -0.0310976 0.46046 0.00976412 0.00972149 3.74882e-06 0.00974297 1.71432e-07 272.916 
-0.43 -0.81 -0.086198 0.29969 0.0097606 0.00971289 2.66446e-06 0.00973894 1.71497e-07 272.7 
-0.47 -0.79 -0.00168495 0.171882 0.00976353 0.00971692 -4.5118e-06 0.00974283 1.71474e-07 272.845 
-0.41 -0.81 -0.203498 0.16611 0.00976425 0.0097271 8.21174e-06 0.00975136 1.71578e-07 272.919 
-0.45 -0.79 -0.0415943 0.235173 0.00976122 0.00971655 1.78638e-06 0.00973739 1.71461e-07 272.713 
-0.49 -0.77 0.0526324 0.348259 0.00976288 0.00972376 4.58752e-06 0.00974405 1.71424e-07 272.959 
-0.39 -0.81 -0.201228 0.200264 0.00975887 0.00971808 1.18755e-05 0.00974316 1.71533e-07 272.761 
-0.43 -0.79 -0.209787 0.383167 0.00976691 0.00971058 5.33551e-06 0.00973886 1.71541e-07 272.628 
-0.47 -0.77 0.0223159 0.315906 0.00976294 0.00972328 3.22458e-06 0.00974605 1.71493e-07 272.905 
-0.37 -0.81 -0.0306376 0.136249 0.00975734 0.00971987 8.90254e-06 0.00973931 1.7156e-07 272.61 
-0.41 -0.79 -0.209307 0.255645 0.00976694 0.009725 6.33463e-06 0.00975202 1.71673e-07 272.786 
-0.45 -0.77 -0.205102 0.386011 0.00976245 0.00971215 -1.21825e-06 0.00973785 1.71467e-07 272.717 
-0.35 -0.81 -0.0364241 0.222567 0.00975254 0.00971237 5.02456e-06 0.00973745 1.71411e-07 272.795 
-0.39 -0.79 -0.180932 0.108802 0.00976468 0.00971458 6.90964e-06 0.00974016 1.71532e-07 272.679 
-0.43 -0.77 -0.16833 0.407021 0.00976062 0.00970901 1.03645e-06 0.00973504 1.71442e-07 272.678 
-0.37 -0.79 -0.255748 0.174102 0.00977039 0.00972017 1.05425e-05 0.00974364 1.71588e-07 272.686 
-0.41 -0.77 -0.151809 0.1803 0.00976318 0.00971646 6.45752e-06 0.0097421 1.71477e-07 272.821 
-0.35 -0.79 -0.215491 0.178748 0.00977079 0.00971678 1.12297e-05 0.00974502 1.71553e-07 272.782 
-0.39 -0.77 -0.133327 0.180263 0.00976318 0.00971989 1.17228e-05 0.00974728 1.71575e-07 272.81 
-0.43 -0.75 -0.0019151 0.196055 0.00977041 0.00970988 1.0748e-08 0.00974215 1.71482e-07 272.814 
-0.33 -0.79 -0.239344 0.295617 0.00976094 0.00971193 3.57035e-06 0.00973716 1.71365e-07 272.86 
-0.37 -0.77 -0.149586 0.232684 0.00976383 0.00971845 4.25352e-06 0.00974149 1.71515e-07 272.743 
-0.41 -0.75 -0.0228559 0.312794 0.00976936 0.00970754 6.59825e-06 0.0097451 1.71624e-07 272.671 
-0.35 -0.77 -0.317013 0.24821 0.00977135 0.00971456 6.12226e-06 0.00974472 1.71514e-07 272.835 
-0.39 -0.75 -0.117404 0.234681 0.0097736 0.00972117 7.3281e-06 0.00975048 1.71647e-07 272.784 
-0.49 -0.75 -0.000608219 0.2602 0.00976874 0.00972794 7.17975e-06 0.00975179 1.71506e-07 273.046 
-0.47 -0.75 -0.00137439 0.497849 0.00976595 0.00972649 4.4708e-06 0.00974551 1.7146e-07 272.943 
-0.45 -0.75 -0.0753893 0.489814 0.00976661 0.00971121 1.06856e-06 0.00973729 1.71499e-07 272.651 
-0.49 -0.73 -0.101755 0.400682 0.00977037 0.00972171 5.2707e-06 0.0097502 1.71496e-07 273.017 
-0.47 -0.73 -0.204962 0.446872 0.00977406 0.0097346 4.43194e-06 0.00975251 1.71455e-07 273.148 
-0.45 -0.73 -0.0683384 0.318808 0.00977166 0.00971577 -3.90499e-06 0.00974114 1.71415e-07 272.892 
-0.49 -0.71 -0.0162811 0.529229 0.00976915 0.00971822 -4.19321e-07 0.00974418 1.71501e-07 272.84 
-0.43 -0.73 -0.041992 0.374082 0.00976456 0.00970468 2.69267e-06 0.00973691 1.71365e-07 272.853 
-0.47 -0.71 -0.0624918 0.460719 0.00977349 0.00973318 1.46461e-06 0.00975413 1.71498e-07 273.123 
-0.37 -0.75 -0.152157 0.202173 0.00976949 0.00972152 8.74252e-06 0.00974366 1.71607e-07 272.658 
-0.41 -0.73 -0.200018 0.310757 0.00976826 0.00970505 8.72506e-07 0.00973826 1.71529e-07 272.63 
-0.45 -0.71 -0.0521433 0.290516 0.00976772 0.00971649 6.1447e-06 0.00974321 1.7141e-07 272.959 
-0.49 -0.69 0.0181307 0.546418 0.00976914 0.00971757 -6.3243e-06 0.00974586 1.71444e-07 272.979 
-0.35 -0.75 -0.0460689 0.275916 0.00976268 0.0097116 8.0138e-06 0.00973711 1.71416e-07 272.778 
-0.39 -0.73 -0.190017 0.192481 0.00977195 0.00971379 9.52764e-06 0.00974452 1.71508e-07 272.839 
-0.43 -0.71 -0.185253 0.380444 0.00976681 0.0097076 1.53092e-06 0.00974093 1.71575e-07 272.633 
-0.47 -0.69 0.0511694 0.420938 0.00976869 0.00972475 3.59219e-06 0.00975026 1.71431e-07 273.122 
-0.37 -0.73 -0.207393 0.273208 0.00977496 0.00972631 9.10189e-06 0.00975006 1.71625e-07 272.807 
-0.41 -0.71 -0.100503 0.421532 0.0097691 0.00969872 2.26831e-07 0.00973957 1.71674e-07 272.436 
-0.45 -0.69 -0.0361586 0.378208 0.00977632 0.00971492 5.30616e-06 0.00974896 1.71549e-07 272.898 
-0.35 -0.73 -0.405497 0.375731 0.00977487 0.00971169 1.01651e-05 0.00974689 1.7158e-07 272.792 
-0.39 -0.71 -0.162548 0.183436 0.00976788 0.00971699 1.02359e-06 0.00974158 1.71547e-07 272.694 
-0.43 -0.69 -0.0475425 0.415891 0.00977742 0.00971632 6.49162e-06 0.00975235 1.71772e-07 272.639 
-0.33 -0.73 -0.307028 0.22004 0.00977372 0.00970822 1.46813e-05 0.00974197 1.71551e-07 272.699 
-0.37 -0.71 -0.115907 0.246327 0.00977076 0.00971895 1.07201e-05 0.00974691 1.71601e-07 272.758 
-0.41 -0.69 -0.0617405 0.293887 0.00976904 0.00970022 3.97523e-07 0.00973785 1.71628e-07 272.461 
-0.35 -0.71 -0.190295 0.493299 0.00976845 0.00970609 8.13961e-06 0.00974443 1.71524e-07 272.812 
-0.39 -0.69 -0.09822 0.384714 0.00976737 0.00970898 4.06636e-06 0.00973873 1.71437e-07 272.789 
-0.37 -0.69 -0.321492 0.311399 0.0097672 0.00971498 8.91881e-06 0.0097433 1.71547e-07 272.742 
-0.35 -0.69 -0.282513 0.500926 0.00976559 0.0097046 1.20277e-05 0.00973452 1.71407e-07 272.72 
-0.35 -0.67 -0.258224 0.360646 0.00977086 0.00971349 1.15412e-05 0.00974168 1.71477e-07 272.808 
-0.33 -0.67 -0.357001 0.538709 0.00975909 0.00970437 8.01628e-06 0.00973992 1.71518e-07 272.694 
-0.33 -0.75 -0.0467886 0.280601 0.0097622 0.00971383 1.04215e-05 0.00973736 1.7139e-07 272.826 
-0.31 -0.73 -0.387497 0.432732 0.00976979 0.00972243 9.79401e-06 0.00974968 1.71571e-07 272.883 
-0.29 -0.73 -0.325316 0.517029 0.00977164 0.00971518 1.24239e-05 0.00974866 1.71494e-07 272.977 
-0.33 -0.71 -0.397604 0.182337 0.00976871 0.00971339 1.38673e-05 0.00974278 1.71514e-07 272.781 
-0.27 -0.73 -0.450322 0.506718 0.00976451 0.00971489 1.76601e-05 0.00974335 1.71427e-07 272.935 
-0.31 -0.71 -0.278295 0.481817 0.00976694 0.00972148 1.53361e-05 0.00974568 1.71483e-07 272.911 
-0.29 -0.71 -0.369178 0.472132 0.0097621 0.00970985 1.70641e-05 0.00974277 1.71376e-07 273 
-0.33 -0.69 -0.2685 0.293504 0.00977391 0.00971224 7.11743e-06 0.00974593 1.71632e-07 272.68 
-0.27 -0.71 -0.316828 0.439714 0.00976569 0.0097125 1.26823e-05 0.00974201 1.71309e-07 273.085 
-0.31 -0.69 -0.505287 0.475426 0.00977884 0.00971964 1.54696e-05 0.00975249 1.71611e-07 272.898 
-0.29 -0.69 -0.480266 0.595823 0.00977623 0.00970939 1.82119e-05 0.00974656 1.71492e-07 272.921 
-0.27 -0.69 -0.491964 0.392499 0.00977275 0.00971738 1.62983e-05 0.00974507 1.71396e-07 273.033 
-0.31 -0.67 -0.400306 0.580639 0.00975773 0.00971455 1.27968e-05 0.00973901 1.71474e-07 272.739 
-0.29 -0.67 -0.419391 0.459646 0.00976368 0.00970888 1.7357e-05 0.00973923 1.71287e-07 273.042 
-0.41 -0.83 -0.186438 0.0979713 0.00975646 0.00972275 1.00706e-05 0.00974211 1.71526e-07 272.743 
-0.39 -0.83 -0.197685 0.30089 0.00975576 0.00972131 3.03218e-06 0.00973717 1.71482e-07 272.674 
-0.37 -0.83 -0.222977 0.176431 0.00975101 0.0097183 4.19517e-06 0.00973487 1.71311e-07 272.883 
-0.35 -0.83 -0.313456 0.106486 0.0097549 0.00971463 1.45567e-05 0.0097357 1.71374e-07 272.805 
-0.33 -0.83 -0.188309 0.285909 0.00975696 0.00972359 1.36152e-05 0.00973818 1.71264e-07 273.05 
-0.31 -0.83 -0.132588 -0.0374979 0.00975086 0.00971168 1.64683e-05 0.00973718 1.71379e-07 272.838 
-0.29 -0.83 -0.264562 0.21032 0.00975748 0.00971971 1.43036e-05 0.00974476 1.71322e-07 273.141 
-0.27 -0.83 -0.284989 0.303395 0.0097607 0.00972216 7.07098e-06 0.00974652 1.71438e-07 273.006 
-0.27 -0.67 -0.458333 0.523114 0.0097639 0.00972092 1.81622e-05 0.00974523 1.71388e-07 273.05 
-0.25 -0.67 -0.46702 0.395772 0.00976828 0.00971672 1.0691e-05 0.00974769 1.71338e-07 273.198 
-0.25 -0.81 -0.271295 0.360916 0.0097634 0.00971643 7.4515e-06 0.00974511 1.71416e-07 273.003 
-0.25 -0.79 -0.278436 0.250471 0.00976874 0.00972253 1.76539e-05 0.00974414 1.71434e-07 272.947 
-0.35 -0.55 -0.266277 0.808651 0.00978024 0.00970811 6.75797e-06 0.00974579 1.71465e-07 272.944 
-0.39 -0.53 -0.266798 0.797243 0.00977726 0.00969406 5.29351e-06 0.00973783 1.71467e-07 272.717 
-0.37 -0.57 -0.380583 0.776801 0.00976833 0.00970132 1.17845e-05 0.00974316 1.71339e-07 273.07 
-0.41 -0.55 -0.190851 0.860141 0.00976197 0.00969723 7.31515e-06 0.00973659 1.71413e-07 272.769 
-0.45 -0.53 -0.0484694 0.604391 0.00976378 0.00969622 -3.70722e-06 0.00972949 1.71307e-07 272.738 
-0.35 -0.57 -0.291575 0.818061 0.00977572 0.00969938 1.76813e-05 0.00974204 1.71508e-07 272.77 
-0.39 -0.55 -0.285446 0.670703 0.00976443 0.00969078 5.47521e-06 0.00973666 1.71378e-07 272.826 
-0.43 -0.53 -0.161555 0.879696 0.00976715 0.00969067 2.45314e-06 0.00973093 1.71435e-07 272.574 
-0.47 -0.51 -0.0737477 0.796456 0.00977265 0.00970329 -2.86091e-06 0.00974255 1.71547e-07 272.722 
-0.37 -0.55 -0.263072 0.723865 0.00976856 0.00969247 9.81996e-06 0.00973829 1.71318e-07 272.966 
-0.41 -0.53 -0.244725 0.708212 0.00977453 0.00969743 5.63597e-06 0.0097361 1.71441e-07 272.71 
-0.45 -0.51 -0.275507 0.710603 0.00976919 0.00969275 2.55505e-06 0.00973622 1.7145e-07 272.698 
-0.37 -0.53 -0.286054 0.747927 0.00977689 0.00969293 1.24276e-06 0.00973885 1.7149e-07 272.708 
-0.41 -0.51 -0.277076 0.798556 0.00976403 0.00969543 1.37647e-07 0.00973193 1.71356e-07 272.728 
-0.35 -0.53 -0.311557 0.776199 0.00977658 0.00970486 9.35781e-06 0.00974365 1.71477e-07 272.863 
-0.39 -0.51 -0.371756 0.833619 0.00977153 0.00969366 1.52673e-07 0.00973389 1.71383e-07 272.74 
-0.37 -0.51 -0.424906 0.740561 0.00977358 0.0096908 3.968e-06 0.00973236 1.71325e-07 272.79 
-0.35 -0.51 -0.484564 0.781873 0.0097696 0.00969677 1.00652e-05 0.00972875 1.71345e-07 272.656 
-0.49 -0.65 -0.0454451 0.442739 0.00977805 0.0097244 2.73723e-06 0.00975325 1.7154e-07 273.032 
-0.47 -0.65 -0.0600933 0.336362 0.00977321 0.00971266 -2.01501e-06 0.00974857 1.71477e-07 273.002 
-0.45 -0.65 -0.00927838 0.616211 0.0097654 0.00971291 6.94715e-06 0.0097434 1.71528e-07 272.776 
-0.49 -0.63 0.0257813 0.406391 0.00976809 0.00972489 7.81707e-07 0.00975139 1.71663e-07 272.785 
-0.43 -0.65 -0.0054021 0.560179 0.00976132 0.00970274 5.42821e-06 0.00973957 1.71461e-07 272.775 
-0.47 -0.63 0.0072331 0.440031 0.00976145 0.00970549 1.64441e-06 0.0097397 1.71471e-07 272.763 
-0.41 -0.65 -0.0427812 0.532875 0.00976442 0.00970651 7.58634e-06 0.00973905 1.71435e-07 272.803 
-0.45 -0.63 -0.0834378 0.625678 0.00976877 0.00971391 7.24771e-06 0.00974576 1.7157e-07 272.776 
-0.49 -0.61 -0.0425974 0.515195 0.0097552 0.00971119 -3.46251e-06 0.00973686 1.71313e-07 272.935 
-0.39 -0.65 -0.0960152 0.472322 0.00975966 0.00971386 7.1167e-06 0.00973611 1.7129e-07 272.951 
-0.43 -0.63 -0.0804917 0.577758 0.00977441 0.00970888 5.96565e-06 0.00974329 1.71386e-07 272.999 
-0.47 -0.61 -0.162903 0.431513 0.009763 0.00970966 6.94724e-06 0.00974073 1.71418e-07 272.876 
-0.37 -0.65 -0.183806 0.402304 0.00975873 0.00969779 4.19269e-06 0.00972636 1.7112e-07 272.949 
-0.41 -0.63 -0.104096 0.554218 0.00976912 0.00969652 2.91764e-06 0.00973665 1.71393e-07 272.802 
-0.45 -0.61 -0.107372 0.61277 0.00976435 0.00970878 -4.5269e-06 0.00973781 1.71384e-07 272.849 
-0.49 -0.59 0.00513853 0.512657 0.00977012 0.00970715 -6.59592e-06 0.00974701 1.71576e-07 272.801 
-0.35 -0.65 -0.269064 0.400867 0.00976861 0.00971047 1.09291e-05 0.00973689 1.71406e-07 272.788 
-0.39 -0.63 -0.0935081 0.49435 0.0097772 0.00971818 1.07498e-05 0.00974844 1.71553e-07 272.877 
-0.43 -0.61 -0.0262106 0.610583 0.00976931 0.00970965 1.90868e-06 0.00974058 1.71359e-07 272.965 
-0.47 -0.59 0.0644324 0.501594 0.00977652 0.0097086 -7.3357e-06 0.00974464 1.71445e-07 272.943 
-0.37 -0.63 -0.189636 0.466471 0.00976796 0.00969986 9.34661e-06 0.00973311 1.71276e-07 272.889 
-0.41 -0.61 -0.123754 0.548403 0.00977152 0.00969947 9.23139e-06 0.0097353 1.71303e-07 272.906 
-0.45 -0.59 0.0537139 0.467253 0.00977559 0.00971138 1.83255e-06 0.00974834 1.71462e-07 273.019 
-0.49 -0.57 -0.0716521 0.486743 0.00977953 0.00971315 -4.61519e-06 0.00975028 1.71568e-07 272.905 
-0.35 -0.63 -0.334606 0.526566 0.00976073 0.00969912 1.08591e-05 0.00973091 1.71268e-07 272.84 
-0.39 -0.61 -0.0986457 0.419197 0.00976997 0.00970754 6.40689e-06 0.00973997 1.71371e-07 272.93 
-0.43 -0.59 -0.0619169 0.701142 0.00976861 0.00970071 3.85435e-06 0.00974291 1.71512e-07 272.787 
-0.47 -0.57 -0.086173 0.46555 0.00977043 0.0097031 -5.25296e-06 0.00973658 1.71341e-07 272.882 
-0.37 -0.61 -0.162115 0.65228 0.00977236 0.00970449 1.21943e-05 0.00973916 1.71473e-07 272.744 
-0.41 -0.59 -0.0901298 0.617957 0.00977362 0.00969976 3.47212e-06 0.0097365 1.71393e-07 272.798 
-0.45 -0.57 -0.165142 0.646651 0.00976909 0.00970317 8.66297e-07 0.00973719 1.71344e-07 272.895 
-0.49 -0.55 -0.043477 0.591411 0.00975597 0.00970857 -6.57973e-06 0.00973632 1.71354e-07 272.855 
-0.35 -0.61 -0.221048 0.636351 0.00976972 0.00969919 1.23518e-05 0.0097328 1.71344e-07 272.771 
-0.39 -0.59 -0.162632 0.499303 0.00977109 0.00969654 9.6261e-06 0.00973655 1.71356e-07 272.858 
-0.43 -0.57 -0.0830368 0.696992 0.0097715 0.0096998 4.50849e-06 0.00973876 1.71381e-07 272.88 
-0.47 -0.55 -0.131261 0.64563 0.00976314 0.00969454 -2.92009e-07 0.00973422 1.7144e-07 272.658 
-0.33 -0.61 -0.420811 0.613417 0.00976022 0.00970033 1.70207e-05 0.00973172 1.71253e-07 272.886 
-0.37 -0.59 -0.199261 0.692962 0.00977298 0.00971119 1.8518e-05 0.0097455 1.7151e-07 272.863 
-0.41 -0.57 -0.19673 0.664545 0.00976537 0.00969875 9.51259e-06 0.00973706 1.7129e-07 272.977 
-0.45 -0.55 -0.179606 0.565235 0.0097628 0.00970396 1.54745e-06 0.00973372 1.71339e-07 272.806 
-0.49 -0.53 0.0453317 0.62547 0.00976328 0.00970021 -4.42045e-06 0.00973789 1.71342e-07 272.918 
-0.35 -0.59 -0.428733 0.748939 0.00976378 0.00969225 1.51738e-05 0.00972674 1.71319e-07 272.642 
-0.39 -0.57 -0.304668 0.657222 0.00976438 0.00968859 9.80421e-06 0.00973369 1.71205e-07 273.017 
-0.43 -0.55 -0.224192 0.623308 0.00976277 0.00969327 8.44747e-06 0.00973223 1.7137e-07 272.715 
-0.47 -0.53 -0.0224872 0.614765 0.00975837 0.00969799 -4.4829e-07 0.00973034 1.7126e-07 272.836 
-0.29 -0.57 -0.556509 0.710037 0.00977297 0.00971387 1.7061e-05 0.00974591 1.71458e-07 272.958 
-0.33 -0.55 -0.415539 0.813017 0.00977943 0.00970498 9.29069e-06 0.00974565 1.71421e-07 273.009 
-0.29 -0.61 -0.385976 0.626405 0.00976447 0.00971621 1.22596e-05 0.00973985 1.71523e-07 272.684 
-0.33 -0.59 -0.420125 0.838228 0.00976459 0.00970458 1.56595e-05 0.00973714 1.71347e-07 272.889 
-0.27 -0.61 -0.496628 0.576422 0.00977562 0.00971581 1.54114e-05 0.00974617 1.71554e-07 272.811 
-0.31 -0.59 -0.492072 0.600832 0.00976482 0.00970591 1.20589e-05 0.00973369 1.71364e-07 272.764 
-0.29 -0.59 -0.462851 0.512051 0.00977199 0.0097195 1.06898e-05 0.00974292 1.71505e-07 272.799 
-0.33 -0.57 -0.386239 0.740297 0.00978065 0.00971023 1.00039e-05 0.00974672 1.71417e-07 273.046 
-0.27 -0.59 -0.458636 0.67654 0.0097658 0.00970978 1.33822e-05 0.00973838 1.71418e-07 272.81 
-0.31 -0.57 -0.368968 0.650504 0.0097812 0.00970655 8.87696e-06 0.00974453 1.71496e-07 272.858 
-0.27 -0.57 -0.6531 0.662832 0.00976746 0.00970756 2.22096e-05 0.00974572 1.71509e-07 272.87 
-0.31 -0.55 -0.414345 0.859366 0.00977459 0.00970954 1.77295e-05 0.0097441 1.71438e-07 272.938 
-0.29 -0.55 -0.479183 0.673912 0.00976618 0.00969835 2.08258e-05 0.00973389 1.71225e-07 272.991 
-0.33 -0.53 -0.280175 0.998957 0.00977434 0.00969683 1.32143e-05 0.00973669 1.7129e-07 272.967 
-0.27 -0.55 -0.345786 0.580529 0.00976742 0.00971265 2.09809e-05 0.00974105 1.71432e-07 272.863 
-0.31 -0.53 -0.378331 0.756208 0.00977348 0.00970334 2.09976e-05 0.00974114 1.71493e-07 272.768 
-0.29 -0.53 -0.311875 0.665663 0.00977975 0.00970222 1.96282e-05 0.00974533 1.71459e-07 272.94 
-0.33 -0.51 -0.303 0.912129 0.00976809 0.00969205 1.59794e-05 0.0097319 1.71194e-07 272.986 
-0.27 -0.53 -0.501387 0.747535 0.0097757 0.00970968 2.24528e-05 0.0097411 1.71438e-07 272.855 
-0.31 -0.51 -0.327646 0.852088 0.00976868 0.00970277 1.81977e-05 0.00973258 1.71346e-07 272.763 
-0.29 -0.51 -0.480206 0.77602 0.0097623 0.00969811 2.3007e-05 0.00973753 1.71421e-07 272.782 
-0.27 -0.51 -0.582837 0.939499 0.00976189 0.00970636 2.70059e-05 0.00973886 1.71371e-07 272.899 
-0.33 -0.65 -0.326769 0.473579 0.00976991 0.00970856 1.62715e-05 0.00973915 1.71386e-07 272.882 
-0.31 -0.65 -0.257801 0.641711 0.0097675 0.00971191 1.28978e-05 0.0097398 1.71345e-07 272.966 
-0.29 -0.65 -0.397087 0.528647 0.00976145 0.00970451 1.36275e-05 0.009735 1.71274e-07 272.944 
-0.33 -0.63 -0.322186 0.5014 0.00976408 0.00971023 8.87354e-06 0.0097406 1.71389e-07 272.919 
-0.27 -0.65 -0.405199 0.509015 0.00977006 0.00972171 1.2548e-05 0.00974685 1.71523e-07 272.881 
-0.31 -0.63 -0.49366 0.698016 0.00976311 0.00970377 1.84656e-05 0.00973771 1.71296e-07 272.986 
-0.25 -0.65 -0.535458 0.448833 0.00976523 0.00971839 1.52976e-05 0.00974342 1.71488e-07 272.84 
-0.29 -0.63 -0.52647 0.494332 0.00976777 0.00971728 1.52484e-05 0.00974394 1.71481e-07 272.866 
-0.27 -0.63 -0.506905 0.565773 0.00975452 0.00971459 1.48137e-05 0.00973626 1.71418e-07 272.75 
-0.31 -0.61 -0.479983 0.619731 0.00976354 0.00970674 1.43638e-05 0.00973746 1.71453e-07 272.729 
-0.49 -0.67 0.0702144 0.485363 0.0097696 0.00971753 -7.44635e-06 0.00974402 1.71507e-07 272.826 
-0.47 -0.67 0.110655 0.380286 0.0097725 0.00971998 -2.03407e-06 0.00974624 1.71522e-07 272.865 
-0.45 -0.67 0.127444 0.501755 0.00977231 0.00971565 1.94556e-06 0.00974811 1.71543e-07 272.884 
-0.43 -0.67 -0.0904202 0.526061 0.00977355 0.00970695 4.85945e-06 0.00974543 1.71582e-07 272.747 