ITEM: TIMESTEP
899000
ITEM: NUMBER OF CELLS
5000
ITEM: BOX BOUNDS ss ss pp
-0.5 0.5
-1 1
-0.5 0.5
ITEM: CELLS xc yc f_U[*] f_V[*] f_Tau[1] f_Tau[2] f_Tau[3] f_Press[*] f_Mrho[*] f_Ttra[*] 
-0.49 -0.99 -0.0631972 0.0869731 0.00975784 0.0097315 1.30513e-05 0.00975189 1.71732e-07 272.69 
-0.47 -0.99 -0.141823 -0.0900728 0.00974412 0.00971532 2.5104e-07 0.00973441 1.71445e-07 272.655 
-0.45 -0.99 -0.211149 0.107749 0.00974256 0.00972895 4.85368e-06 0.00974238 1.71446e-07 272.878 
-0.49 -0.97 -0.0768315 0.162392 0.00973894 0.0097252 1.01861e-05 0.00973419 1.71291e-07 272.895 
-0.43 -0.99 -0.334259 0.0277794 0.00973414 0.00973134 2.221e-06 0.00973987 1.71238e-07 273.14 
-0.47 -0.97 -0.0994195 0.0427906 0.00974417 0.00971996 1.12483e-05 0.00973918 1.71297e-07 273.025 
-0.41 -0.99 -0.0838965 -0.119873 0.00972933 0.00972818 4.44307e-06 0.00973114 1.71304e-07 272.788 
-0.45 -0.97 -0.0272655 0.152426 0.00973985 0.00972835 1.60278e-06 0.00973904 1.71357e-07 272.926 
-0.49 -0.95 0.0431634 0.128172 0.0097312 0.00970624 -3.89577e-06 0.00972401 1.71111e-07 272.897 
-0.39 -0.99 -0.171944 0.0938721 0.00972827 0.00971177 -3.91927e-06 0.00971317 1.70764e-07 273.146 
-0.43 -0.97 0.163283 -0.0158641 0.00974899 0.00973722 -2.12735e-06 0.00974239 1.71379e-07 272.985 
-0.47 -0.95 0.0186196 0.151745 0.00974512 0.00972412 1.89829e-06 0.00973275 1.71237e-07 272.941 
-0.37 -0.99 -0.23473 0.00488305 0.00972965 0.00972139 4.74269e-06 0.00972507 1.71115e-07 272.92 
-0.41 -0.97 -0.000401771 -0.168921 0.00973867 0.00972439 6.17922e-06 0.00972952 1.71086e-07 273.091 
-0.45 -0.95 0.113316 -0.19211 0.00974892 0.00973984 8.06286e-06 0.00974398 1.71518e-07 272.808 
-0.49 -0.93 -0.0299164 0.112013 0.0097635 0.00971814 3.5026e-06 0.00974101 1.71371e-07 272.959 
-0.35 -0.99 -0.12053 -0.178887 0.00971406 0.00968983 1.50528e-05 0.00969973 1.70747e-07 272.795 
-0.39 -0.97 0.233545 0.0216372 0.00973047 0.00971474 1.42029e-05 0.00972572 1.71121e-07 272.928 
-0.43 -0.95 0.157267 -0.0101325 0.0097481 0.00972339 9.33372e-06 0.00973448 1.71384e-07 272.755 
-0.47 -0.93 0.140774 -0.0326803 0.0097583 0.00971676 -1.37008e-06 0.00973798 1.71273e-07 273.03 
-0.33 -0.99 -0.0533566 -0.00154403 0.00972815 0.00972708 3.61772e-06 0.00971744 1.71061e-07 272.792 
-0.37 -0.97 0.154589 -0.0538752 0.00972827 0.00971233 3.76952e-06 0.00972112 1.71124e-07 272.795 
-0.41 -0.95 0.0581483 -0.163922 0.00974255 0.00972635 5.19061e-06 0.00973294 1.71346e-07 272.773 
-0.45 -0.93 0.058724 -0.0270203 0.0097546 0.00973169 2.75595e-06 0.00973795 1.71486e-07 272.69 
-0.49 -0.91 0.180363 0.000806172 0.00977326 0.00972528 1.15431e-05 0.00974858 1.713e-07 273.284 
-0.35 -0.97 -0.0569701 -0.112825 0.00973581 0.00970136 6.23163e-06 0.00971514 1.70959e-07 272.89 
-0.39 -0.95 -0.00249647 -0.0760221 0.00973836 0.00971635 5.26784e-06 0.00972488 1.7131e-07 272.604 
-0.43 -0.93 0.0213994 -0.0525116 0.0097474 0.00971652 6.5225e-06 0.00972327 1.71078e-07 272.928 
-0.47 -0.91 -0.139343 0.019793 0.00976397 0.00971353 5.04542e-06 0.00973874 1.71397e-07 272.853 
-0.33 -0.97 -0.156991 -0.139654 0.00973601 0.00972309 2.6629e-06 0.00973175 1.71362e-07 272.714 
-0.37 -0.95 -0.11876 0.124473 0.00974551 0.00971535 1.99572e-05 0.00973486 1.71253e-07 272.975 
-0.41 -0.93 0.0592365 -0.137779 0.00975136 0.00973405 2.18676e-05 0.00973008 1.71326e-07 272.723 
-0.45 -0.91 0.0124975 -0.0256947 0.00976243 0.00972533 1.27158e-05 0.00974574 1.71426e-07 273.003 
-0.49 -0.89 -0.092097 0.0766246 0.00977025 0.00972641 7.75271e-06 0.00974779 1.71478e-07 272.978 
-0.35 -0.95 -0.153123 -0.0920677 0.00974895 0.00970824 -2.27187e-06 0.00973116 1.71379e-07 272.67 
-0.39 -0.93 -0.13932 -0.0304979 0.00974122 0.00971442 1.00034e-05 0.00972365 1.71315e-07 272.561 
-0.43 -0.91 -0.180441 -0.131695 0.00974677 0.00972179 1.55052e-05 0.00973049 1.71046e-07 273.182 
-0.47 -0.89 0.0913547 0.0780346 0.00976226 0.00971796 1.42365e-05 0.00974262 1.71582e-07 272.669 
-0.37 -0.93 0.0286714 0.0736512 0.0097453 0.00971817 -3.77017e-06 0.00973395 1.71297e-07 272.878 
-0.41 -0.91 -0.200685 0.0691623 0.00975364 0.00971703 9.27179e-06 0.00972956 1.71312e-07 272.732 
-0.45 -0.89 -0.149884 0.0318935 0.00975694 0.00971655 7.23228e-06 0.00974146 1.71341e-07 273.02 
-0.49 -0.87 -0.0620145 0.101825 0.00973693 0.00971007 3.5676e-06 0.00972126 1.71109e-07 272.822 
-0.35 -0.93 -0.331655 0.139584 0.00974963 0.00971634 1.06024e-06 0.00972388 1.71348e-07 272.515 
-0.39 -0.91 -0.123351 -0.096363 0.0097704 0.00973165 1.16163e-05 0.00975473 1.71632e-07 272.928 
-0.43 -0.89 -0.143449 0.0458427 0.00977216 0.00973122 1.38303e-05 0.00975256 1.71388e-07 273.255 
-0.47 -0.87 0.0703097 0.0634479 0.00974702 0.00971994 5.13604e-06 0.00973383 1.71308e-07 272.859 
-0.37 -0.91 -0.221109 0.235252 0.00975628 0.00972578 8.32775e-07 0.00974115 1.71579e-07 272.631 
-0.41 -0.89 -0.145171 0.0453855 0.00976812 0.00971621 3.79767e-06 0.00974608 1.71555e-07 272.807 
-0.45 -0.87 -0.121111 0.105352 0.00975973 0.00970915 8.30749e-06 0.00974416 1.7144e-07 272.936 
-0.49 -0.85 0.0697678 0.1216 0.0097397 0.00970775 -2.80846e-06 0.00971643 1.71107e-07 272.69 
-0.35 -0.91 -0.074604 0.216922 0.00975026 0.00971395 3.37184e-06 0.009726 1.71227e-07 272.767 
-0.39 -0.89 -0.2467 0.0683468 0.00976677 0.00972203 8.91184e-06 0.00974185 1.71384e-07 272.962 
-0.43 -0.87 -0.0875955 0.0818928 0.00975285 0.00974033 8.42568e-06 0.00975213 1.71576e-07 272.944 
-0.47 -0.85 -0.0767313 0.188516 0.00974873 0.00971839 3.94424e-06 0.00973644 1.71315e-07 272.919 
-0.33 -0.91 -0.113657 -0.0182136 0.00975098 0.00970571 6.99181e-06 0.00972972 1.7132e-07 272.723 
-0.37 -0.89 -0.353926 0.0943206 0.0097758 0.00974073 1.78528e-05 0.00975772 1.71393e-07 273.392 
-0.41 -0.87 -0.25045 0.13222 0.00975953 0.00972578 1.0342e-05 0.00974317 1.71571e-07 272.701 
-0.45 -0.85 -0.0831148 0.168322 0.00974633 0.00970675 6.99799e-06 0.00973058 1.71273e-07 272.822 
-0.35 -0.89 -0.299899 0.159961 0.00976411 0.00970249 8.7106e-06 0.00972457 1.71127e-07 272.887 
-0.39 -0.87 -0.189287 0.0409981 0.00976019 0.00971884 3.45585e-06 0.0097379 1.7156e-07 272.572 
-0.43 -0.85 -0.0969863 0.0606073 0.00976344 0.00974014 -3.35056e-06 0.00974786 1.71597e-07 272.79 
-0.37 -0.87 -0.278121 0.113211 0.00976711 0.00973165 8.74129e-06 0.009745 1.71452e-07 272.941 
-0.41 -0.85 -0.057052 0.12519 0.00976242 0.00972347 6.78021e-06 0.00974401 1.71592e-07 272.691 
-0.35 -0.87 -0.18579 0.207308 0.0097766 0.00971814 7.19763e-06 0.00974317 1.71377e-07 273.009 
-0.39 -0.85 -0.215774 0.327926 0.00976644 0.00972994 -1.11663e-06 0.0097481 1.71585e-07 272.817 
-0.33 -0.87 -0.492857 0.0107834 0.00977407 0.00971753 8.91755e-06 0.00974312 1.71455e-07 272.884 
-0.37 -0.85 -0.381945 -0.0871016 0.00976333 0.00971831 5.37323e-06 0.00974497 1.71417e-07 272.997 
-0.35 -0.85 -0.39556 0.227619 0.00976049 0.00972014 1.11401e-05 0.0097404 1.71186e-07 273.237 
-0.33 -0.85 -0.460628 0.379149 0.00975542 0.00971912 1.22979e-05 0.00973252 1.71105e-07 273.145 
-0.31 -0.99 0.0510736 -0.00822637 0.00972088 0.00969689 1.01292e-05 0.00970309 1.70984e-07 272.511 
-0.29 -0.99 -0.247216 0.2969 0.00972492 0.00970629 6.12608e-06 0.00971203 1.71011e-07 272.719 
-0.27 -0.99 -0.244437 -0.219566 0.00974963 0.0097252 8.21654e-06 0.0097343 1.71137e-07 273.144 
-0.31 -0.97 -0.420295 0.0460268 0.00974782 0.00970861 1.23891e-06 0.00973435 1.71342e-07 272.818 
-0.29 -0.97 -0.365356 0.252575 0.00975568 0.0097092 4.16631e-06 0.00974318 1.71563e-07 272.714 
-0.33 -0.95 -0.153981 0.186023 0.00974804 0.00971874 2.57027e-06 0.00973362 1.71322e-07 272.829 
-0.27 -0.97 -0.149527 -0.221871 0.00973971 0.00971612 4.6666e-06 0.00973444 1.71438e-07 272.669 
-0.31 -0.95 -0.262098 0.160574 0.00973925 0.00971115 5.40296e-06 0.00972876 1.71299e-07 272.729 
-0.29 -0.95 -0.12128 0.062201 0.00973324 0.00969146 5.87022e-06 0.00971248 1.71172e-07 272.476 
-0.33 -0.93 -0.337599 0.224125 0.00975101 0.00970868 2.98243e-06 0.00972919 1.71297e-07 272.745 
-0.27 -0.95 -0.361249 -0.138609 0.00974411 0.0097377 3.67519e-06 0.00973492 1.71392e-07 272.755 
-0.31 -0.93 -0.187966 0.0682084 0.00975506 0.00971012 8.67454e-06 0.00973375 1.71554e-07 272.464 
-0.29 -0.93 -0.271387 0.125496 0.0097594 0.00969378 5.28762e-06 0.00972649 1.71377e-07 272.542 
-0.27 -0.93 -0.14537 -0.0392294 0.00977445 0.00973615 -1.40654e-06 0.0097591 1.71652e-07 273.019 
-0.31 -0.91 -0.172801 0.335125 0.00975778 0.00970985 -5.13049e-07 0.00973754 1.71453e-07 272.732 
-0.29 -0.91 -0.26539 -0.071077 0.00976016 0.00970455 -1.08887e-05 0.00972866 1.71347e-07 272.65 
-0.33 -0.89 -0.201124 -0.029523 0.00976279 0.00971803 -3.22469e-07 0.00973237 1.71279e-07 272.864 
-0.27 -0.91 -0.0953374 -0.0486526 0.00975742 0.00971789 1.53687e-06 0.00972961 1.71487e-07 272.455 
-0.31 -0.89 -0.156564 0.289373 0.00976739 0.00971009 -3.30281e-06 0.00974045 1.71593e-07 272.59 
-0.29 -0.89 -0.14155 -0.0978386 0.00976267 0.00970973 -1.22187e-06 0.00973804 1.71336e-07 272.931 
-0.27 -0.89 -0.256616 0.00926175 0.00974412 0.00970311 1.06436e-05 0.00973184 1.71355e-07 272.728 
-0.31 -0.87 -0.44531 0.129482 0.00975228 0.00971374 7.35715e-06 0.0097299 1.71392e-07 272.614 
-0.29 -0.87 -0.25745 -0.0400439 0.0097358 0.00969724 1.30963e-05 0.00972229 1.71225e-07 272.666 
-0.27 -0.87 -0.346252 0.294248 0.00973764 0.00971486 7.97281e-06 0.00972601 1.71291e-07 272.665 
-0.31 -0.85 -0.402474 -0.119905 0.00975576 0.00970785 2.18057e-05 0.00973149 1.714e-07 272.646 
-0.29 -0.85 -0.282384 0.00509261 0.0097501 0.00969775 1.89026e-05 0.00974073 1.71543e-07 272.678 
-0.27 -0.85 -0.42068 0.236331 0.00974798 0.00971716 5.50547e-06 0.00973718 1.71115e-07 273.26 
-0.25 -0.99 -0.18891 0.0772985 0.00975389 0.00974013 7.33107e-06 0.00974835 1.71379e-07 273.151 
-0.25 -0.97 -0.110713 0.21765 0.00974575 0.00974069 -3.94053e-06 0.00974499 1.71619e-07 272.676 
-0.25 -0.95 -0.413265 0.134789 0.00973432 0.00973733 3.92376e-06 0.00973747 1.71401e-07 272.812 
-0.25 -0.93 -0.0792463 0.00542913 0.00976517 0.00973689 1.15048e-05 0.00975103 1.71625e-07 272.835 
-0.25 -0.91 -0.145894 0.0339698 0.00975895 0.00972736 1.79281e-05 0.00974318 1.715e-07 272.814 
-0.25 -0.89 -0.475541 0.0946422 0.00974979 0.00971891 1.08928e-05 0.00973298 1.71153e-07 273.081 
-0.25 -0.87 -0.46154 0.0224807 0.00972783 0.00970757 7.0953e-06 0.00972453 1.71007e-07 273.077 
-0.25 -0.85 -0.330974 0.365443 0.0097586 0.00971295 5.26424e-06 0.00973705 1.7121e-07 273.104 
-0.25 -0.83 -0.505153 0.190042 0.00976417 0.00970319 2.5705e-06 0.00974245 1.71155e-07 273.344 
-0.33 -0.81 -0.0113501 0.164357 0.00976368 0.00970446 9.59021e-06 0.00972831 1.71274e-07 272.757 
-0.31 -0.81 -0.287724 0.316795 0.00978386 0.00971136 8.51363e-06 0.00974384 1.71239e-07 273.248 
-0.29 -0.81 -0.280607 0.106229 0.00977851 0.00970915 4.38884e-06 0.0097447 1.71308e-07 273.163 
-0.27 -0.81 -0.383144 0.170743 0.00977527 0.00972384 8.76612e-06 0.00975516 1.71503e-07 273.145 
-0.31 -0.79 -0.214837 0.10894 0.00976135 0.00970852 2.87316e-06 0.00972933 1.71377e-07 272.622 
-0.29 -0.79 -0.402111 0.499095 0.00975842 0.00970536 8.01057e-06 0.00972328 1.71248e-07 272.658 
-0.33 -0.77 -0.466813 0.301406 0.00976525 0.00972111 1.42283e-05 0.00973732 1.71318e-07 272.939 
-0.27 -0.79 -0.57002 0.216173 0.00975463 0.00971266 1.06454e-05 0.00973196 1.7134e-07 272.754 
-0.31 -0.77 -0.361685 0.206819 0.00974941 0.00968934 9.41703e-06 0.00971617 1.71153e-07 272.609 
-0.29 -0.77 -0.32468 0.54175 0.00975851 0.00971686 1.21625e-05 0.00973462 1.71461e-07 272.637 
-0.27 -0.77 -0.428069 0.216318 0.00976009 0.00970219 1.0585e-05 0.00973259 1.71428e-07 272.633 
-0.31 -0.75 -0.123221 0.47888 0.00975379 0.00970602 7.8837e-06 0.00974073 1.7151e-07 272.731 
-0.29 -0.75 -0.494685 0.559684 0.00975077 0.0097089 8.33152e-06 0.00973628 1.71413e-07 272.759 
-0.27 -0.75 -0.582773 0.618455 0.00975216 0.0097051 1.17105e-05 0.00972514 1.71164e-07 272.844 
-0.49 -0.83 -0.077276 0.121424 0.00975464 0.00971348 3.40699e-06 0.00973461 1.71491e-07 272.588 
-0.47 -0.83 0.0048599 0.211136 0.00975161 0.00970946 3.81926e-07 0.00973184 1.71452e-07 272.573 
-0.45 -0.83 -0.101285 0.219009 0.00975462 0.00972365 -5.92319e-06 0.00974379 1.71441e-07 272.926 
-0.49 -0.81 0.0396921 0.0340522 0.00975358 0.00971716 -3.93415e-06 0.00974131 1.71433e-07 272.868 
-0.43 -0.83 -0.160707 0.0913753 0.009741 0.00971929 4.78074e-06 0.00972643 1.71351e-07 272.582 
-0.47 -0.81 -0.0139641 0.335575 0.00975557 0.00971504 -3.47924e-06 0.00974615 1.71524e-07 272.858 
-0.45 -0.81 -0.0508289 0.268335 0.00975783 0.00971515 3.94249e-06 0.00973854 1.71609e-07 272.51 
-0.49 -0.79 -0.116037 0.297944 0.00975117 0.00971651 7.32647e-06 0.00973684 1.71386e-07 272.817 
-0.43 -0.81 -0.158391 0.293067 0.00976546 0.00972272 -1.35904e-06 0.0097435 1.71804e-07 272.34 
-0.47 -0.79 -0.0304529 0.0859103 0.00974073 0.00970998 -2.23794e-06 0.00973112 1.71378e-07 272.671 
-0.41 -0.81 -0.417489 0.334338 0.00975179 0.00972258 9.13463e-06 0.00974115 1.71506e-07 272.748 
-0.45 -0.79 -0.0340113 0.455186 0.00974149 0.0097233 -7.02735e-06 0.00973618 1.71401e-07 272.776 
-0.49 -0.77 0.177275 0.187102 0.00973925 0.00971183 2.58954e-06 0.00972529 1.7114e-07 272.885 
-0.39 -0.81 -0.244769 0.144696 0.00974563 0.00972156 1.21252e-05 0.00974752 1.71656e-07 272.688 
-0.43 -0.79 -0.316248 0.336882 0.00975144 0.00971709 -2.54853e-06 0.00973901 1.71494e-07 272.706 
-0.47 -0.77 -0.127274 0.300408 0.00975087 0.00971805 -7.51765e-08 0.0097362 1.71317e-07 272.91 
-0.37 -0.81 0.137245 0.270343 0.00975127 0.00971501 5.2618e-06 0.00973767 1.7164e-07 272.438 
-0.41 -0.79 -0.326873 0.427381 0.00976187 0.00972283 3.70781e-06 0.00974844 1.71788e-07 272.504 
-0.45 -0.77 -0.370927 0.618898 0.009752 0.00972593 -4.1547e-06 0.00973887 1.71476e-07 272.731 
-0.35 -0.81 0.101211 0.154931 0.00974446 0.00971185 5.00525e-06 0.00973285 1.71286e-07 272.866 
-0.39 -0.79 -0.233026 -0.144044 0.00977006 0.00971821 4.37528e-06 0.00975019 1.71745e-07 272.62 
-0.43 -0.77 -0.301826 0.483126 0.0097377 0.00971047 -4.22264e-06 0.00972414 1.71318e-07 272.57 
-0.37 -0.79 -0.387163 0.246274 0.00977522 0.00971562 8.66644e-06 0.00974645 1.71558e-07 272.814 
-0.41 -0.77 -0.387886 0.0367948 0.00973806 0.00971855 -8.27544e-07 0.00973425 1.71563e-07 272.465 
-0.35 -0.79 -0.28755 0.118076 0.0097726 0.00971298 1.09791e-05 0.00974203 1.71685e-07 272.489 
-0.39 -0.77 -0.0752283 0.0504148 0.00973792 0.00971886 3.11222e-07 0.00973999 1.71551e-07 272.644 
-0.43 -0.75 0.125858 0.284185 0.00976433 0.00971675 -5.38385e-06 0.00973929 1.7142e-07 272.833 
-0.33 -0.79 -0.279326 0.369523 0.00976418 0.00971003 -2.04275e-06 0.00972609 1.71509e-07 272.322 
-0.37 -0.77 -0.0219792 0.201984 0.00974975 0.00971163 -3.98206e-06 0.0097343 1.71487e-07 272.586 
-0.41 -0.75 0.0734599 0.340408 0.00976423 0.00971217 2.51558e-06 0.00974921 1.71689e-07 272.683 
-0.35 -0.77 -0.273448 0.447273 0.00976688 0.00971689 2.55225e-06 0.00974513 1.71389e-07 273.045 
-0.39 -0.75 -0.265678 0.0894064 0.00976749 0.00972099 4.33318e-07 0.00974597 1.71511e-07 272.875 
-0.49 -0.75 -0.14419 0.186399 0.00974515 0.00972442 -2.5608e-06 0.0097409 1.71084e-07 273.413 
-0.47 -0.75 -0.0928223 0.387106 0.00975118 0.0097252 -1.00953e-05 0.009732 1.71185e-07 273.003 
-0.45 -0.75 -0.0253416 0.675924 0.00975523 0.00971149 -6.51285e-06 0.00972587 1.71297e-07 272.652 
-0.49 -0.73 -0.052762 0.370249 0.00978411 0.00972632 2.84793e-06 0.00975755 1.7132e-07 273.503 
-0.47 -0.73 -0.242604 0.353963 0.00976845 0.00973541 1.90277e-06 0.00975031 1.71277e-07 273.369 
-0.45 -0.73 -0.143361 0.342777 0.00976407 0.00970886 -1.30745e-05 0.00973813 1.71516e-07 272.648 
-0.49 -0.71 -0.038316 0.437531 0.00978129 0.00972588 3.99247e-06 0.00975468 1.71594e-07 272.987 
-0.43 -0.73 0.0474609 0.42289 0.00975845 0.00971305 -4.27995e-06 0.00973795 1.71473e-07 272.71 
-0.47 -0.71 -0.0607787 0.537847 0.0097882 0.0097369 2.61069e-06 0.00976232 1.71711e-07 273.014 
-0.37 -0.75 -0.35379 0.144091 0.009744 0.00970944 5.95574e-06 0.00972705 1.71397e-07 272.526 
-0.41 -0.73 0.0485828 0.332198 0.00976075 0.00970366 -7.9973e-06 0.00974079 1.71555e-07 272.659 
-0.45 -0.71 0.204718 0.00592879 0.0097751 0.00971998 1.22885e-06 0.00974716 1.71514e-07 272.903 
-0.49 -0.69 -0.0249494 0.426189 0.00977698 0.00972043 -1.1822e-05 0.00975268 1.71622e-07 272.886 
-0.35 -0.75 -0.00616246 0.355474 0.00973532 0.00971115 5.13773e-06 0.00973144 1.71394e-07 272.655 
-0.39 -0.73 0.0250926 0.196418 0.00975785 0.00970837 1.31889e-05 0.00973757 1.7131e-07 272.96 
-0.43 -0.71 -0.0621452 0.370979 0.00976456 0.0097133 3.53507e-07 0.00974407 1.71601e-07 272.678 
-0.47 -0.69 0.249487 0.342071 0.0097781 0.00972625 5.46614e-06 0.00975739 1.71577e-07 273.09 
-0.37 -0.73 0.0164602 0.227587 0.0097658 0.00971769 1.06941e-05 0.00974755 1.71637e-07 272.718 
-0.41 -0.71 0.192051 0.454879 0.00976163 0.00968681 1.58777e-07 0.00973122 1.71624e-07 272.283 
-0.45 -0.69 -0.111719 0.301607 0.00979404 0.00972565 9.5963e-06 0.0097624 1.71853e-07 272.791 
-0.35 -0.73 -0.374943 0.336879 0.00975885 0.00971119 7.59264e-06 0.00974553 1.71517e-07 272.853 
-0.39 -0.71 0.0464846 0.181638 0.0097655 0.00971158 1.37443e-06 0.00974287 1.71578e-07 272.681 
-0.43 -0.69 -0.23621 0.452225 0.00978946 0.00971707 8.56127e-06 0.00975992 1.7203e-07 272.442 
-0.33 -0.73 -0.455279 0.243516 0.00976039 0.00970055 1.11788e-05 0.0097386 1.71614e-07 272.505 
-0.37 -0.71 0.106889 0.270696 0.00975858 0.00971339 1.69549e-05 0.00974692 1.71688e-07 272.621 
-0.41 -0.69 -0.195842 0.177738 0.00977614 0.00969818 8.98949e-07 0.00973918 1.71709e-07 272.371 
-0.35 -0.71 -0.129491 0.662817 0.0097594 0.00970902 1.26018e-06 0.00975644 1.71809e-07 272.694 
-0.39 -0.69 -0.104009 0.211563 0.00976252 0.00969842 1.08801e-05 0.00973235 1.71532e-07 272.46 
-0.37 -0.69 -0.155262 0.447915 0.00977104 0.00971006 8.2683e-06 0.00974711 1.71571e-07 272.812 
-0.35 -0.69 -0.157519 0.722095 0.0097707 0.00971526 1.53217e-05 0.0097458 1.71521e-07 272.854 
-0.35 -0.67 -0.264454 0.734555 0.00977641 0.00973085 1.11644e-05 0.0097507 1.71543e-07 272.956 
-0.33 -0.67 -0.29157 0.760518 0.0097578 0.00970185 1.97339e-06 0.00974499 1.71634e-07 272.652 
-0.33 -0.75 0.149902 0.252535 0.00973827 0.00970553 8.62806e-06 0.00973147 1.71415e-07 272.622 
-0.31 -0.73 -0.390617 0.731885 0.00975768 0.00971706 4.65929e-06 0.00974272 1.71544e-07 272.731 
-0.29 -0.73 -0.35046 0.726996 0.00976326 0.00969704 5.18342e-06 0.00973615 1.71339e-07 272.874 
-0.33 -0.71 -0.395879 0.189091 0.00975831 0.00970552 9.64144e-06 0.00974397 1.71704e-07 272.511 
-0.27 -0.73 -0.471035 0.578102 0.00976488 0.00971614 6.52585e-06 0.00974523 1.7137e-07 273.079 
-0.31 -0.71 -0.366924 0.65031 0.00975987 0.00972183 8.4149e-06 0.00974854 1.7169e-07 272.662 
-0.29 -0.71 -0.275326 0.70337 0.00975174 0.0096908 8.34627e-06 0.00972843 1.71184e-07 272.904 
-0.33 -0.69 -0.241681 0.499632 0.0097808 0.0097025 -7.25732e-06 0.00975156 1.71834e-07 272.519 
-0.27 -0.71 -0.214729 0.559348 0.00975176 0.00971003 3.66081e-06 0.00973106 1.71226e-07 272.911 
-0.31 -0.69 -0.531783 0.497244 0.00978131 0.0097148 1.11939e-05 0.00975836 1.71883e-07 272.631 
-0.29 -0.69 -0.440282 0.547434 0.00977596 0.00970049 1.35489e-05 0.00974223 1.71552e-07 272.704 
-0.27 -0.69 -0.2557 0.651928 0.00977966 0.00971351 3.17552e-06 0.00974808 1.71317e-07 273.243 
-0.31 -0.67 -0.265709 0.677024 0.00975469 0.00969755 1.66528e-06 0.00972979 1.7146e-07 272.503 
-0.29 -0.67 -0.40007 0.410904 0.00976912 0.00970909 8.54722e-06 0.00974557 1.71486e-07 272.903 
-0.41 -0.83 -0.096273 0.264929 0.00975366 0.00972663 -3.80659e-06 0.00973915 1.71542e-07 272.635 
-0.39 -0.83 -0.269614 0.426078 0.00975208 0.00972828 5.57205e-06 0.00973785 1.71433e-07 272.771 
-0.37 -0.83 -0.345514 0.296299 0.00974344 0.00971391 1.00858e-05 0.00973503 1.71435e-07 272.69 
-0.35 -0.83 -0.462395 0.138576 0.00975181 0.00971549 1.5951e-05 0.00973219 1.7134e-07 272.76 
-0.33 -0.83 -0.199214 0.214858 0.00975011 0.00971446 1.64883e-05 0.00972866 1.71117e-07 273.017 
-0.31 -0.83 -0.195926 -0.172963 0.00974696 0.00969568 1.41148e-05 0.00973239 1.71354e-07 272.744 
-0.29 -0.83 -0.488955 0.140706 0.00976721 0.00971449 1.15542e-05 0.00974994 1.71329e-07 273.276 
-0.27 -0.83 -0.488673 0.261401 0.00977121 0.00972621 8.10503e-06 0.00975602 1.71348e-07 273.416 
-0.27 -0.67 -0.51587 0.552565 0.00975726 0.00971994 1.48757e-05 0.00974816 1.71543e-07 272.885 
-0.25 -0.67 -0.344949 0.730102 0.00976314 0.00971534 2.15224e-06 0.0097541 1.71481e-07 273.15 
-0.25 -0.81 -0.523585 0.266877 0.00976774 0.00971315 6.15109e-06 0.0097469 1.71445e-07 273.006 
-0.25 -0.79 -0.455421 0.222479 0.00976508 0.00972752 1.55809e-05 0.00974686 1.71399e-07 273.078 
-0.35 -0.55 -0.209592 0.693451 0.00978804 0.00970802 8.28154e-06 0.00975065 1.71572e-07 272.909 
-0.39 -0.53 -0.0898116 1.04398 0.00978179 0.00969347 9.82148e-07 0.00975139 1.71585e-07 272.91 
-0.37 -0.57 -0.326243 0.645522 0.00978544 0.00969828 3.38937e-06 0.00975112 1.7163e-07 272.83 
-0.41 -0.55 -0.0567107 0.850972 0.00975935 0.00970446 -4.35532e-06 0.00973845 1.71513e-07 272.662 
-0.45 -0.53 0.0742879 0.62857 0.00977009 0.00969949 -7.86702e-06 0.00973034 1.71444e-07 272.543 
-0.35 -0.57 -0.255477 0.551898 0.00978282 0.00970086 2.1848e-05 0.00974631 1.7155e-07 272.822 
-0.39 -0.55 -0.141548 0.960483 0.00976286 0.00969193 2.23617e-06 0.00974637 1.71441e-07 272.998 
-0.43 -0.53 -0.176589 0.705151 0.00977747 0.00970055 2.83483e-06 0.0097382 1.7158e-07 272.548 
-0.47 -0.51 -0.265236 0.643396 0.00976833 0.00969144 -3.08635e-06 0.00972898 1.7152e-07 272.385 
-0.37 -0.55 -0.192925 0.66235 0.00975849 0.00967761 2.59256e-06 0.00973103 1.7109e-07 273.127 
-0.41 -0.53 -0.242144 0.768339 0.00978377 0.0097071 -3.60787e-06 0.00975005 1.7163e-07 272.8 
-0.45 -0.51 -0.435791 0.751 0.00976729 0.00969555 3.61337e-06 0.00973635 1.71551e-07 272.541 
-0.37 -0.53 -0.144885 0.827687 0.00978344 0.00968663 -3.60815e-06 0.00973898 1.71436e-07 272.798 
-0.41 -0.51 -0.333723 0.809149 0.00975381 0.00970226 -8.0454e-07 0.00972787 1.71326e-07 272.661 
-0.35 -0.53 -0.421761 0.799029 0.00976563 0.00969348 6.37039e-06 0.00973138 1.71386e-07 272.665 
-0.39 -0.51 -0.461354 0.81676 0.00975592 0.00968881 7.48623e-07 0.00972682 1.71361e-07 272.577 
-0.37 -0.51 -0.361883 0.994185 0.00975345 0.00967999 7.53368e-06 0.0097202 1.71223e-07 272.611 
-0.35 -0.51 -0.438317 0.862112 0.00975319 0.00969127 9.05058e-06 0.00971978 1.71232e-07 272.585 
-0.49 -0.65 0.150302 0.352033 0.00976859 0.00971718 9.3525e-06 0.00974832 1.71569e-07 272.848 
-0.47 -0.65 -0.193518 0.439294 0.00976548 0.00972032 4.41457e-06 0.00975015 1.71645e-07 272.778 
-0.45 -0.65 -0.185757 0.615976 0.00975899 0.00972529 6.06354e-06 0.00975011 1.71841e-07 272.466 
-0.49 -0.63 -0.111378 0.359648 0.00974835 0.00971986 3.94819e-06 0.00974547 1.71774e-07 272.442 
-0.43 -0.65 0.105 0.726072 0.00974592 0.00969596 2.45056e-06 0.00972777 1.71373e-07 272.585 
-0.47 -0.63 -0.0776013 0.681246 0.00975299 0.00971616 7.60314e-07 0.00974272 1.71713e-07 272.462 
-0.41 -0.65 -0.0199766 0.341345 0.00976275 0.00970472 1.15042e-05 0.00973837 1.71491e-07 272.694 
-0.45 -0.63 -0.159042 0.560668 0.00976414 0.00971993 9.66028e-06 0.0097473 1.71693e-07 272.623 
-0.49 -0.61 -0.0498882 0.569759 0.00976346 0.00971813 -9.02774e-06 0.0097494 1.71733e-07 272.618 
-0.39 -0.65 -0.121865 0.285121 0.00976206 0.00971568 6.86401e-06 0.00974097 1.71352e-07 272.987 
-0.43 -0.63 -0.323836 0.614679 0.00977535 0.00971219 5.93294e-06 0.00974262 1.71346e-07 273.043 
-0.47 -0.61 -0.286153 0.691572 0.00976224 0.00971266 4.17474e-06 0.00974661 1.71697e-07 272.597 
-0.37 -0.65 -0.604006 0.554056 0.00975711 0.00969155 2.48896e-07 0.00972699 1.71213e-07 272.817 
-0.41 -0.63 -0.298126 0.460088 0.00976431 0.00969138 2.88681e-06 0.00972967 1.71273e-07 272.796 
-0.45 -0.61 -0.305877 0.733828 0.00976055 0.00971802 -7.90141e-06 0.00974659 1.71485e-07 272.934 
-0.49 -0.59 -0.0543985 0.639989 0.00977386 0.00970092 -7.58533e-06 0.00974391 1.7157e-07 272.724 
-0.35 -0.65 -0.573838 0.495184 0.00976822 0.00973367 5.70528e-06 0.00975032 1.71667e-07 272.748 
-0.39 -0.63 -0.485703 0.582911 0.00977621 0.00971912 1.14269e-05 0.00974051 1.71508e-07 272.727 
-0.43 -0.61 -0.138976 0.709405 0.00976625 0.00970255 6.39958e-06 0.00973651 1.71194e-07 273.115 
-0.47 -0.59 -0.0200028 0.801 0.00978031 0.00971934 -5.97905e-06 0.00975179 1.71757e-07 272.646 
-0.37 -0.63 -0.466432 0.596257 0.00976286 0.00969533 6.25275e-06 0.00973091 1.71446e-07 272.556 
-0.41 -0.61 -0.389686 0.458651 0.00977255 0.00971206 5.21454e-06 0.00973898 1.71253e-07 273.09 
-0.45 -0.59 0.0904879 0.41905 0.00978273 0.00971295 -1.24966e-06 0.00975705 1.71707e-07 272.873 
-0.49 -0.57 -0.0559877 0.579876 0.0097755 0.00969538 -1.14191e-05 0.0097346 1.71343e-07 272.824 
-0.35 -0.63 -0.440967 0.459796 0.00975946 0.0097199 8.1307e-06 0.00973674 1.71408e-07 272.78 
-0.39 -0.61 -0.318139 0.54115 0.00977674 0.00969865 9.66145e-07 0.00973589 1.71262e-07 272.989 
-0.43 -0.59 0.0655521 0.832922 0.00977912 0.00970452 3.88302e-06 0.00974935 1.71745e-07 272.597 
-0.47 -0.57 -0.049899 0.698605 0.00977487 0.00972179 -5.98258e-06 0.00974457 1.71655e-07 272.607 
-0.37 -0.61 -0.29904 0.593928 0.00978379 0.00970636 1.14202e-05 0.00974598 1.71451e-07 272.971 
-0.41 -0.59 0.137583 0.540044 0.00978207 0.0097088 -3.98801e-06 0.0097447 1.71484e-07 272.882 
-0.45 -0.57 0.0688885 0.470589 0.00977405 0.00970012 1.51546e-06 0.00974006 1.71416e-07 272.861 
-0.49 -0.55 0.0183904 0.580194 0.00976133 0.00969896 -1.26449e-05 0.00973537 1.71428e-07 272.71 
-0.35 -0.61 -0.249801 0.447209 0.00977884 0.00970556 7.66327e-06 0.00973795 1.71387e-07 272.847 
-0.39 -0.59 -0.0486151 0.665613 0.00977409 0.00968129 5.28594e-06 0.0097331 1.71299e-07 272.852 
-0.43 -0.57 0.111582 0.732457 0.00977684 0.00970372 -4.79809e-06 0.00974468 1.71371e-07 273.061 
-0.47 -0.55 -0.0148404 0.77466 0.00977357 0.00970276 -7.09068e-06 0.00974595 1.71777e-07 272.451 
-0.33 -0.61 -0.58281 0.640737 0.00977791 0.00970055 2.18973e-05 0.00974604 1.71419e-07 273.023 
-0.37 -0.59 -0.0736017 0.455059 0.00977429 0.00971958 1.41627e-05 0.00974679 1.71539e-07 272.853 
-0.41 -0.57 0.0262849 0.713273 0.00978075 0.00970541 1.24913e-05 0.00974423 1.71555e-07 272.756 
-0.45 -0.55 -0.177533 0.394754 0.00977295 0.009702 -1.33699e-06 0.0097334 1.71456e-07 272.61 
-0.49 -0.53 0.0261062 0.592709 0.00977731 0.00969904 -4.79976e-06 0.00974248 1.71612e-07 272.616 
-0.35 -0.59 -0.342807 0.683416 0.00976865 0.00969405 1.38991e-05 0.00972957 1.71505e-07 272.426 
-0.39 -0.57 -0.234963 0.851723 0.00978193 0.0096903 -1.17386e-06 0.00974566 1.71478e-07 272.919 
-0.43 -0.55 -0.0672657 0.656358 0.00976771 0.00970168 5.06097e-06 0.00974363 1.71499e-07 272.828 
-0.47 -0.53 0.0550649 0.621074 0.00976745 0.00969353 -6.32272e-06 0.00973244 1.71488e-07 272.532 
-0.29 -0.57 -0.559628 0.5675 0.00976905 0.00969502 2.24428e-05 0.00973685 1.71325e-07 272.916 
-0.33 -0.55 -0.530941 0.984398 0.00979731 0.00971853 7.71439e-06 0.00975106 1.71555e-07 272.947 
-0.29 -0.61 -0.290516 0.726822 0.00976121 0.00970658 3.16706e-07 0.0097375 1.71535e-07 272.599 
-0.33 -0.59 -0.26944 0.889802 0.00977073 0.00970459 1.40632e-05 0.00973916 1.71323e-07 272.984 
-0.27 -0.61 -0.389491 0.440733 0.00976928 0.00970257 1.57882e-05 0.00973953 1.71419e-07 272.841 
-0.31 -0.59 -0.554771 0.771344 0.00977805 0.00972022 1.164e-05 0.00974962 1.71571e-07 272.882 
-0.29 -0.59 -0.327833 0.372597 0.0097905 0.00970801 1.11085e-05 0.00975276 1.71566e-07 272.978 
-0.33 -0.57 -0.30198 0.991006 0.00977739 0.00970918 7.09369e-06 0.00973988 1.7142e-07 272.849 
-0.27 -0.59 -0.249401 0.729539 0.00977394 0.00968689 1.54133e-05 0.0097334 1.7124e-07 272.955 
-0.31 -0.57 -0.249499 0.791318 0.00977942 0.00971687 1.28719e-06 0.00974808 1.71609e-07 272.777 
-0.27 -0.57 -0.75764 0.723553 0.00976502 0.00969302 2.75435e-05 0.00974424 1.71556e-07 272.754 
-0.31 -0.55 -0.263351 0.976202 0.00977367 0.00970003 2.69919e-05 0.00974172 1.71418e-07 272.904 
-0.29 -0.55 -0.430602 0.678367 0.00976041 0.00968186 2.51696e-05 0.00972687 1.71159e-07 272.901 
-0.33 -0.53 -0.23338 1.09898 0.00976077 0.0096989 1.76502e-05 0.00972929 1.71221e-07 272.869 
-0.27 -0.55 -0.406628 0.719356 0.00975935 0.00969961 1.9765e-05 0.0097267 1.71292e-07 272.683 
-0.31 -0.53 -0.357721 0.773689 0.00976547 0.00970312 2.92636e-05 0.00973993 1.71494e-07 272.733 
-0.29 -0.53 -0.385153 0.774958 0.00978497 0.00968886 2.70898e-05 0.00974624 1.71449e-07 272.982 
-0.33 -0.51 -0.399233 0.833565 0.00974796 0.00968511 2.07695e-05 0.00971909 1.71045e-07 272.864 
-0.27 -0.53 -0.570992 0.879228 0.00977811 0.00969982 2.61051e-05 0.00974053 1.71309e-07 273.043 
-0.31 -0.51 -0.174916 0.793933 0.00974894 0.00970073 1.93046e-05 0.00972154 1.71122e-07 272.81 
-0.29 -0.51 -0.140458 0.922114 0.00974574 0.00968768 2.16342e-05 0.00972888 1.71145e-07 272.978 
-0.27 -0.51 -0.321333 1.23272 0.00975868 0.0097004 2.86763e-05 0.00973491 1.71123e-07 273.183 
-0.33 -0.65 -0.387755 0.497569 0.00977635 0.00970424 1.32318e-05 0.00975101 1.71491e-07 273.048 
-0.31 -0.65 -0.26322 0.758342 0.00977371 0.00970227 9.38967e-06 0.00974627 1.71509e-07 272.886 
-0.29 -0.65 -0.462523 0.669476 0.00975533 0.00969171 1.07992e-05 0.00972976 1.71267e-07 272.809 
-0.33 -0.63 -0.343709 0.581422 0.00975086 0.00970867 1.05954e-05 0.00973966 1.71537e-07 272.657 
-0.27 -0.65 -0.513345 0.478039 0.00977014 0.00972877 7.96169e-06 0.00975097 1.7163e-07 272.826 
-0.31 -0.63 -0.690211 0.746474 0.00974123 0.00969205 1.16518e-05 0.00972759 1.71177e-07 272.891 
-0.25 -0.65 -0.633808 0.510234 0.00976051 0.00971183 7.66168e-06 0.00974437 1.71647e-07 272.613 
-0.29 -0.63 -0.717577 0.520285 0.00976078 0.00971146 6.38828e-06 0.00974076 1.71581e-07 272.617 
-0.27 -0.63 -0.628748 0.535423 0.00974928 0.00971956 6.68451e-06 0.00974148 1.71651e-07 272.526 
-0.31 -0.61 -0.491109 0.784354 0.00977942 0.00971405 1.3896e-05 0.00975304 1.71695e-07 272.78 
-0.49 -0.67 -0.0168209 0.400341 0.00976781 0.00971105 -9.74317e-07 0.00974551 1.71403e-07 273.034 
-0.47 -0.67 0.0127619 0.181022 0.00976601 0.00972394 -3.1002e-06 0.00974034 1.71591e-07 272.59 
-0.45 -0.67 0.0816838 0.79295 0.00975917 0.00971943 3.35949e-06 0.00973833 1.71611e-07 272.501 
-0.43 -0.67 -0.189339 0.451333 0.00977247 0.00971599 1.01119e-05 0.00974275 1.71666e-07 272.538 