ITEM: TIMESTEP
853500
ITEM: NUMBER OF CELLS
5000
ITEM: BOX BOUNDS ss ss pp
-0.5 0.5
-1 1
-0.5 0.5
ITEM: CELLS xc yc f_U[*] f_V[*] f_Tau[1] f_Tau[2] f_Tau[3] f_Press[*] f_Mrho[*] f_Ttra[*] 
-0.49 -0.99 -0.111818 0.111722 0.00977109 0.00973103 1.05453e-05 0.00976293 1.71898e-07 272.734 
-0.47 -0.99 -0.186953 -0.0533716 0.00975594 0.00971306 -1.02574e-05 0.00973892 1.71611e-07 272.519 
-0.45 -0.99 -0.317264 0.0341812 0.00973994 0.00971786 1.95246e-06 0.00973092 1.71432e-07 272.579 
-0.49 -0.97 -0.170105 0.159606 0.00973617 0.00972385 1.89728e-05 0.00972961 1.71121e-07 273.038 
-0.43 -0.99 -0.432788 0.188576 0.00972714 0.0097408 6.04203e-06 0.00974586 1.71296e-07 273.214 
-0.47 -0.97 -0.219952 0.203287 0.00973042 0.00971671 2.05072e-05 0.00973165 1.71391e-07 272.665 
-0.41 -0.99 -0.316028 -0.151015 0.00971853 0.00974774 -7.29861e-07 0.00974085 1.71466e-07 272.803 
-0.45 -0.97 -0.102519 -0.034213 0.0097245 0.00971944 -2.26722e-06 0.00972589 1.71355e-07 272.56 
-0.49 -0.95 0.120449 0.188765 0.00970643 0.00971053 -7.7212e-06 0.00971572 1.7097e-07 272.888 
-0.39 -0.99 -0.235569 -0.0985213 0.00972443 0.00971534 -1.07772e-05 0.00972107 1.70734e-07 273.416 
-0.43 -0.97 0.116907 0.0703491 0.0097423 0.00974207 -4.09873e-06 0.00974366 1.71381e-07 273.018 
-0.47 -0.95 0.0993082 0.157466 0.009732 0.00972419 6.14246e-06 0.00972211 1.71274e-07 272.583 
-0.37 -0.99 -0.0800881 0.0624 0.00971965 0.00971178 1.63883e-05 0.00971726 1.70922e-07 273.008 
-0.41 -0.97 0.105928 -0.0699656 0.00974222 0.00975154 3.81834e-06 0.00975162 1.7117e-07 273.577 
-0.45 -0.95 0.219232 -0.206944 0.00974232 0.00974588 6.23823e-06 0.00974953 1.71776e-07 272.553 
-0.49 -0.93 0.0417183 0.107283 0.00974795 0.00972016 1.47405e-06 0.00973867 1.71409e-07 272.833 
-0.35 -0.99 -0.122625 -0.143246 0.00970363 0.00968828 1.47285e-05 0.00968843 1.70602e-07 272.708 
-0.39 -0.97 0.181161 -0.0271127 0.00971433 0.00970893 1.72233e-05 0.0097245 1.71115e-07 272.904 
-0.43 -0.95 0.134829 0.0557324 0.00973878 0.00972511 -3.69119e-06 0.009732 1.71283e-07 272.846 
-0.47 -0.93 0.146348 0.0721043 0.00974993 0.0097255 -5.05079e-06 0.00973758 1.71393e-07 272.827 
-0.33 -0.99 0.0742378 0.0893729 0.00971125 0.00969986 8.32852e-06 0.00969856 1.7072e-07 272.806 
-0.37 -0.97 0.0623727 -0.0740616 0.00970101 0.00970355 1.68004e-05 0.00970054 1.7075e-07 272.813 
-0.41 -0.95 0.00513924 -0.160664 0.00973335 0.00973609 1.12236e-05 0.00973353 1.71425e-07 272.663 
-0.45 -0.93 0.0872504 -0.0648447 0.0097449 0.00974169 -5.10634e-06 0.00973236 1.71457e-07 272.58 
-0.49 -0.91 0.152938 -0.0147156 0.00979415 0.00974525 1.3446e-05 0.00977124 1.71514e-07 273.578 
-0.35 -0.97 -0.0233021 -0.143282 0.00970834 0.00970056 9.49177e-06 0.00969989 1.70545e-07 273.123 
-0.39 -0.95 -0.0477755 -0.096658 0.00973567 0.00971306 2.15758e-05 0.00971793 1.7113e-07 272.696 
-0.43 -0.93 0.26974 -0.0101708 0.00974246 0.00972027 -2.41854e-07 0.00971921 1.71075e-07 272.819 
-0.47 -0.91 -0.189816 0.112257 0.00977162 0.00971767 -3.30958e-06 0.00973937 1.71538e-07 272.647 
-0.33 -0.97 -0.265427 -0.0160765 0.00970525 0.00969113 9.28372e-06 0.00970769 1.71008e-07 272.603 
-0.37 -0.95 -0.175181 0.107823 0.00974656 0.00970918 2.44915e-05 0.00972729 1.71097e-07 273.011 
-0.41 -0.93 -0.000705868 0.0378605 0.00974683 0.00973324 2.75611e-05 0.00972479 1.71227e-07 272.733 
-0.45 -0.91 0.0664221 -0.234217 0.00977944 0.0097426 3.95754e-06 0.00974954 1.71498e-07 272.996 
-0.49 -0.89 -0.167148 0.222602 0.00980229 0.00975373 6.41282e-06 0.00976737 1.71678e-07 273.208 
-0.35 -0.95 -0.0774161 -0.00739582 0.00975005 0.00970599 1.60733e-06 0.00972864 1.71289e-07 272.743 
-0.39 -0.93 -0.247738 0.110666 0.00973713 0.00970946 1.10182e-05 0.00971726 1.71058e-07 272.792 
-0.43 -0.91 -0.282822 0.104877 0.00975682 0.00972025 1.15257e-05 0.0097284 1.70854e-07 273.43 
-0.47 -0.89 0.0477282 -0.0117079 0.00978604 0.00973005 1.30016e-05 0.00975086 1.71795e-07 272.561 
-0.37 -0.93 -0.104778 0.0737907 0.00975518 0.00971439 -8.16541e-06 0.00974039 1.71368e-07 272.947 
-0.41 -0.91 -0.308376 0.568725 0.00975571 0.00970654 9.78125e-06 0.00972394 1.7126e-07 272.658 
-0.45 -0.89 -0.318335 0.0795698 0.00976756 0.00972658 2.48903e-06 0.00974121 1.71329e-07 273.032 
-0.49 -0.87 0.0495365 0.268317 0.00974283 0.00972473 2.9268e-06 0.0097255 1.7119e-07 272.812 
-0.35 -0.93 -0.551658 0.348836 0.00976174 0.0097122 6.02911e-06 0.00972686 1.71244e-07 272.764 
-0.39 -0.91 -0.256846 -0.158468 0.00978194 0.00973726 1.26463e-05 0.00976634 1.71721e-07 273.111 
-0.43 -0.89 -0.485633 0.356771 0.00977448 0.00971842 2.04264e-05 0.00974951 1.71268e-07 273.361 
-0.47 -0.87 -0.00411379 0.254037 0.00975491 0.00973737 7.96246e-06 0.00974332 1.71407e-07 272.966 
-0.37 -0.91 -0.267299 0.278322 0.00976158 0.00972157 5.93516e-06 0.00974755 1.71417e-07 273.069 
-0.41 -0.89 -0.459175 0.406088 0.00976931 0.00971082 9.29233e-08 0.00974386 1.71458e-07 272.9 
-0.45 -0.87 -0.465677 0.216567 0.00976283 0.00970823 1.42926e-05 0.00974493 1.71429e-07 272.977 
-0.49 -0.85 -0.0100785 0.209804 0.00974632 0.00971546 -9.65069e-06 0.00972305 1.71292e-07 272.581 
-0.35 -0.91 -0.102473 0.312239 0.00974549 0.0097035 2.28018e-06 0.0097142 1.70802e-07 273.114 
-0.39 -0.89 -0.390662 0.0504636 0.00975903 0.00972659 1.40135e-05 0.00974983 1.71466e-07 273.054 
-0.43 -0.87 -0.177063 0.214905 0.00975346 0.00973764 1.09581e-05 0.00974885 1.71624e-07 272.776 
-0.47 -0.85 1.52614e-05 0.439409 0.00975595 0.00972733 1.21936e-05 0.00974492 1.71355e-07 273.093 
-0.33 -0.91 -0.390496 0.169711 0.00975819 0.00971454 4.45224e-06 0.00972863 1.71238e-07 272.823 
-0.37 -0.89 -0.299504 -0.0353411 0.00976733 0.00973059 2.21178e-05 0.00975183 1.71245e-07 273.463 
-0.41 -0.87 -0.0911147 0.346417 0.00976195 0.00972577 1.26958e-05 0.00975121 1.71595e-07 272.888 
-0.45 -0.85 0.0226594 0.187494 0.00976163 0.00971112 1.60757e-05 0.00973767 1.71314e-07 272.957 
-0.35 -0.89 -0.317843 0.529135 0.00976716 0.00970738 4.7075e-06 0.00972953 1.71252e-07 272.827 
-0.39 -0.87 -0.251983 -0.0244139 0.0097669 0.00971083 5.90316e-07 0.00974059 1.7151e-07 272.726 
-0.43 -0.85 -0.303026 0.260118 0.00977907 0.00973774 1.39297e-07 0.00974893 1.71682e-07 272.686 
-0.37 -0.87 -0.426442 0.102263 0.00977195 0.00973305 5.23898e-06 0.00975066 1.71531e-07 272.974 
-0.41 -0.85 -0.272534 0.402585 0.00977115 0.00972235 1.30835e-05 0.00974863 1.71614e-07 272.785 
-0.35 -0.87 -0.125259 0.357421 0.0097813 0.00972402 7.49352e-06 0.00975515 1.71558e-07 273.056 
-0.39 -0.85 -0.425789 0.403645 0.0097637 0.00972545 3.29703e-06 0.00974285 1.71537e-07 272.747 
-0.33 -0.87 -0.215487 0.0813444 0.00977368 0.00970937 9.75247e-06 0.00974426 1.71357e-07 273.072 
-0.37 -0.85 -0.545463 -0.404334 0.00976324 0.00972102 4.54719e-06 0.00974713 1.71489e-07 272.943 
-0.35 -0.85 -0.507656 0.11266 0.00976147 0.00972607 8.25208e-06 0.00974897 1.71263e-07 273.354 
-0.33 -0.85 -0.378375 0.468491 0.00975416 0.00969746 1.78024e-05 0.00972059 1.70896e-07 273.144 
-0.31 -0.99 0.0569515 0.0501081 0.00970744 0.00967988 1.20523e-05 0.00969308 1.70864e-07 272.421 
-0.29 -0.99 -0.312169 0.292747 0.0097136 0.0097039 8.825e-07 0.00969788 1.7083e-07 272.611 
-0.27 -0.99 -0.282045 -0.331718 0.00974757 0.00972648 1.92296e-06 0.00972774 1.70979e-07 273.212 
-0.31 -0.97 -0.641785 0.214547 0.00973489 0.00970739 -1.00481e-05 0.00972937 1.71436e-07 272.529 
-0.29 -0.97 -0.46223 0.11183 0.00974429 0.00970766 -2.49954e-06 0.00973634 1.71347e-07 272.867 
-0.33 -0.95 -0.23405 0.308459 0.00975824 0.00971114 -7.16238e-07 0.00973363 1.71422e-07 272.67 
-0.27 -0.97 0.044139 -0.478668 0.00973064 0.00971803 -4.07399e-06 0.00973607 1.71522e-07 272.58 
-0.31 -0.95 -0.0783601 0.344024 0.0097379 0.00970071 -6.31037e-07 0.00971949 1.7146e-07 272.213 
-0.29 -0.95 -0.0141801 -0.240234 0.00973211 0.00969383 -1.9577e-06 0.00971241 1.71364e-07 272.168 
-0.33 -0.93 -0.346717 0.0804974 0.00975674 0.00970821 6.49021e-06 0.00973081 1.71293e-07 272.798 
-0.27 -0.95 -0.366794 -0.434131 0.00974094 0.00974152 -4.27797e-06 0.00974313 1.71541e-07 272.748 
-0.31 -0.93 -0.225433 0.172539 0.00976548 0.00970952 4.23267e-06 0.00973348 1.71457e-07 272.611 
-0.29 -0.93 -0.425446 0.0539173 0.00976705 0.00969639 -4.6547e-06 0.00973331 1.71597e-07 272.383 
-0.27 -0.93 -0.279408 -0.369614 0.00978458 0.00973895 -8.45856e-06 0.0097678 1.72111e-07 272.532 
-0.31 -0.91 -0.366689 0.216543 0.00976626 0.00970842 2.90175e-06 0.00974542 1.71579e-07 272.751 
-0.29 -0.91 -0.344534 -0.177765 0.00975571 0.00971084 -1.40157e-05 0.00972522 1.71249e-07 272.711 
-0.33 -0.89 -0.17998 -0.0047506 0.00976759 0.00971836 -8.1444e-06 0.00973895 1.71161e-07 273.236 
-0.27 -0.91 -0.373315 -0.313145 0.00974862 0.00971737 -8.50363e-06 0.00972679 1.71395e-07 272.522 
-0.31 -0.89 -0.0722542 0.0619023 0.00977124 0.00970064 -3.24585e-06 0.00974217 1.71537e-07 272.728 
-0.29 -0.89 0.0744462 -0.163199 0.00977403 0.00972982 -5.6891e-06 0.00975046 1.714e-07 273.177 
-0.27 -0.89 -0.193766 -0.157727 0.00975061 0.00970578 3.3686e-07 0.00973716 1.7151e-07 272.629 
-0.31 -0.87 -0.30602 -0.00616549 0.00974262 0.00970593 6.91857e-06 0.00972758 1.71327e-07 272.652 
-0.29 -0.87 -0.233955 -0.221773 0.00972227 0.00972404 1.0355e-05 0.00972849 1.71194e-07 272.889 
-0.27 -0.87 -0.275815 0.299858 0.00972258 0.00971124 1.5468e-06 0.00971372 1.7119e-07 272.481 
-0.31 -0.85 -0.190806 -0.309285 0.00976589 0.0097167 1.712e-05 0.00973694 1.7161e-07 272.465 
-0.29 -0.85 -0.0926808 -0.0318782 0.00975875 0.00971996 1.75345e-05 0.00974405 1.71553e-07 272.754 
-0.27 -0.85 -0.281811 0.491544 0.00974976 0.00971936 8.08342e-06 0.00974088 1.70954e-07 273.621 
-0.25 -0.99 -0.132627 0.0140261 0.0097626 0.00975357 9.09238e-07 0.00975435 1.71552e-07 273.045 
-0.25 -0.97 0.016467 0.323212 0.00973963 0.00974922 -1.58029e-05 0.00974849 1.71469e-07 273.012 
-0.25 -0.95 -0.263389 0.1967 0.00972841 0.00974138 -8.06997e-06 0.00974807 1.71507e-07 272.939 
-0.25 -0.93 -0.320749 0.0148767 0.00976931 0.00973767 6.95788e-06 0.00975405 1.71582e-07 272.988 
-0.25 -0.91 -0.0595732 -0.0975676 0.00975124 0.00972616 9.29868e-06 0.00973671 1.715e-07 272.632 
-0.25 -0.89 -0.559712 -0.0600531 0.00975466 0.0097188 9.68391e-06 0.00973122 1.71147e-07 273.042 
-0.25 -0.87 -0.652601 -0.00932465 0.00971929 0.00970605 3.05929e-06 0.00972037 1.70895e-07 273.14 
-0.25 -0.85 -0.160964 0.256529 0.00975004 0.00970914 -5.824e-06 0.0097349 1.71083e-07 273.246 
-0.25 -0.83 -0.158021 0.0245108 0.00976384 0.0097026 3.26988e-06 0.00975239 1.71185e-07 273.574 
-0.33 -0.81 0.134121 0.101835 0.00976124 0.00969901 1.13666e-05 0.00972784 1.71276e-07 272.74 
-0.31 -0.81 -0.166433 0.218645 0.00978176 0.00971812 6.75218e-06 0.00974665 1.71293e-07 273.241 
-0.29 -0.81 -0.19981 0.0168891 0.00978359 0.00972943 -2.44745e-06 0.00976061 1.71542e-07 273.235 
-0.27 -0.81 -0.0639692 0.233912 0.00978008 0.00972701 7.71783e-06 0.00976903 1.7161e-07 273.363 
-0.31 -0.79 0.168328 0.275345 0.00976379 0.00972439 -1.75438e-06 0.00973859 1.71455e-07 272.757 
-0.29 -0.79 -0.268332 0.28454 0.00975217 0.00972151 -2.24438e-06 0.00973064 1.71319e-07 272.751 
-0.33 -0.77 -0.172824 0.220867 0.00976441 0.00972387 1.36251e-05 0.00973944 1.71416e-07 272.844 
-0.27 -0.79 -0.601544 0.267318 0.00974078 0.00970019 6.59825e-06 0.00972828 1.71137e-07 272.975 
-0.31 -0.77 -0.205957 0.301565 0.00975158 0.00970488 3.29103e-06 0.00973045 1.71349e-07 272.698 
-0.29 -0.77 -0.249175 0.749139 0.00976626 0.00972661 1.55708e-05 0.00974815 1.71673e-07 272.679 
-0.27 -0.77 -0.403543 0.299716 0.00976221 0.00969913 7.93407e-06 0.00974121 1.71585e-07 272.624 
-0.31 -0.75 0.113428 0.892234 0.00974641 0.00971957 4.25531e-06 0.00974711 1.7171e-07 272.591 
-0.29 -0.75 -0.387401 0.822454 0.00974799 0.00971631 7.63943e-06 0.00973424 1.71412e-07 272.704 
-0.27 -0.75 -0.49909 0.428721 0.00975566 0.00969968 1.6296e-05 0.0097277 1.71197e-07 272.863 
-0.49 -0.83 -0.138073 0.285675 0.00974548 0.0097058 7.39429e-06 0.00972971 1.71309e-07 272.741 
-0.47 -0.83 -0.0327833 0.232158 0.00974771 0.00971689 -3.13936e-06 0.00973548 1.71544e-07 272.529 
-0.45 -0.83 0.177123 0.250747 0.00974954 0.00972655 -1.43654e-06 0.00973934 1.71251e-07 273.103 
-0.49 -0.81 0.120623 0.159756 0.0097493 0.00971745 -6.05851e-06 0.00974587 1.71348e-07 273.132 
-0.43 -0.83 0.203814 0.338252 0.0097351 0.0097126 1.04326e-05 0.00972185 1.71313e-07 272.513 
-0.47 -0.81 0.0136632 0.412251 0.00974824 0.00971786 -4.1594e-06 0.00975042 1.71496e-07 273.024 
-0.45 -0.81 -0.12996 0.193979 0.00975841 0.00971142 9.73294e-06 0.0097423 1.71707e-07 272.46 
-0.49 -0.79 -0.198324 0.454193 0.00974001 0.00971916 9.23327e-06 0.00973384 1.71353e-07 272.786 
-0.43 -0.81 -0.261757 0.474195 0.00977944 0.0097299 4.01941e-06 0.00975262 1.7185e-07 272.523 
-0.47 -0.79 -0.231776 0.34405 0.00973401 0.00971751 -2.56267e-06 0.00972452 1.71255e-07 272.681 
-0.41 -0.81 -0.394993 0.758227 0.00974885 0.00971286 1.45841e-05 0.00973799 1.71463e-07 272.727 
-0.45 -0.79 -0.405438 0.374901 0.00972839 0.00971842 -1.21765e-05 0.00972429 1.71202e-07 272.76 
-0.49 -0.77 0.242342 0.422137 0.00973797 0.00972899 9.86891e-07 0.00972825 1.71165e-07 272.929 
-0.39 -0.81 -0.356494 0.182916 0.00974708 0.00972201 1.16606e-05 0.00975692 1.71604e-07 273.033 
-0.43 -0.79 -0.387263 0.511637 0.00974149 0.00971086 -3.37233e-07 0.00973287 1.71385e-07 272.708 
-0.47 -0.77 -0.0373154 0.480607 0.00974441 0.00971785 4.7505e-08 0.00972911 1.71176e-07 272.936 
-0.37 -0.81 0.225267 -0.0299355 0.00975262 0.0097261 8.72376e-07 0.0097419 1.71512e-07 272.759 
-0.41 -0.79 -0.402326 0.533425 0.00977257 0.00971943 2.8022e-06 0.00975072 1.71855e-07 272.461 
-0.45 -0.77 -0.478038 0.835363 0.00975514 0.00973149 -9.12689e-06 0.0097478 1.71605e-07 272.777 
-0.35 -0.81 0.162315 0.0554588 0.00975084 0.00970911 1.29293e-05 0.00974616 1.7147e-07 272.945 
-0.39 -0.79 0.0512839 -0.221156 0.00977853 0.00971438 9.71394e-06 0.00974961 1.71631e-07 272.785 
-0.43 -0.77 -0.60497 0.452607 0.00973178 0.00970114 -6.75142e-06 0.00971901 1.71179e-07 272.648 
-0.37 -0.79 -0.156775 0.0633601 0.00977965 0.00973419 1.99218e-05 0.00975359 1.71602e-07 272.943 
-0.41 -0.77 -0.301398 -0.0519987 0.00972061 0.00970432 -1.67145e-06 0.00971524 1.71363e-07 272.249 
-0.35 -0.79 -0.00392336 0.243305 0.00976959 0.00970877 1.05003e-05 0.00974152 1.716e-07 272.608 
-0.39 -0.77 0.0535339 -0.101829 0.00973284 0.00972 2.44139e-07 0.0097434 1.71601e-07 272.66 
-0.43 -0.75 0.251407 0.31051 0.00974727 0.00970558 -1.36091e-06 0.00973072 1.71461e-07 272.528 
-0.33 -0.79 0.00805989 0.239775 0.0097626 0.00970401 -2.12309e-07 0.00972567 1.71471e-07 272.37 
-0.37 -0.77 0.0803785 0.0959855 0.00974264 0.0097148 5.32958e-06 0.00972656 1.71325e-07 272.627 
-0.41 -0.75 0.185538 0.072261 0.00974845 0.00970935 2.5978e-06 0.00973986 1.715e-07 272.721 
-0.35 -0.77 0.0446876 0.526799 0.00976264 0.0097219 4.5593e-06 0.00975592 1.71303e-07 273.485 
-0.39 -0.75 -0.172517 0.13802 0.009747 0.00970841 -2.54487e-07 0.00973968 1.71496e-07 272.722 
-0.49 -0.75 -0.155037 0.325508 0.00974428 0.00973321 -7.77954e-07 0.00973887 1.70981e-07 273.522 
-0.47 -0.75 -0.0599733 0.679062 0.00974975 0.00972961 -9.02322e-06 0.00973658 1.71161e-07 273.17 
-0.45 -0.75 0.249257 0.781497 0.00974237 0.00971557 -4.21192e-06 0.00972957 1.71413e-07 272.571 
-0.49 -0.73 -0.133625 0.536883 0.00978756 0.00973366 9.54695e-06 0.00976744 1.71339e-07 273.75 
-0.47 -0.73 -0.105302 0.692094 0.00977661 0.00974762 1.68603e-06 0.0097681 1.71377e-07 273.709 
-0.45 -0.73 -0.0758734 0.222911 0.00976606 0.00970145 -5.20048e-06 0.00973506 1.71422e-07 272.711 
-0.49 -0.71 -0.0190426 0.58052 0.00980345 0.00974399 9.36671e-06 0.0097837 1.7194e-07 273.247 
-0.43 -0.73 0.311124 0.436302 0.00975625 0.00971308 8.19128e-07 0.00974497 1.71449e-07 272.946 
-0.47 -0.71 -0.0903497 0.534069 0.00980361 0.00974179 1.04213e-05 0.00977353 1.71714e-07 273.323 
-0.37 -0.75 -0.357391 -0.102048 0.00973236 0.00972085 5.02919e-06 0.00972569 1.71473e-07 272.367 
-0.41 -0.73 0.256721 0.314444 0.00974938 0.00970126 -5.3089e-06 0.00973638 1.71375e-07 272.823 
-0.45 -0.71 0.350766 0.0215793 0.00977874 0.00971004 1.50321e-05 0.00974878 1.71565e-07 272.868 
-0.49 -0.69 -0.0550516 0.529182 0.0097688 0.00972989 -6.15076e-06 0.0097529 1.71472e-07 273.131 
-0.35 -0.75 -0.057863 0.216355 0.00973274 0.00972364 8.40078e-06 0.00973255 1.714e-07 272.675 
-0.39 -0.73 0.211771 -0.0944712 0.00974856 0.00969876 1.03571e-05 0.0097251 1.71232e-07 272.733 
-0.43 -0.71 0.0926215 0.135268 0.00976823 0.00971695 5.47853e-06 0.00974384 1.7164e-07 272.61 
-0.47 -0.69 0.42877 0.170384 0.00977517 0.00971911 1.85403e-05 0.00975609 1.71522e-07 273.141 
-0.37 -0.73 0.337467 0.117903 0.00976281 0.00973107 8.43969e-06 0.00974376 1.71711e-07 272.496 
-0.41 -0.71 0.452523 0.49575 0.00977818 0.00969279 1.24653e-06 0.00975053 1.71902e-07 272.381 
-0.45 -0.69 0.188488 0.408396 0.00980154 0.00972257 1.52079e-05 0.0097702 1.71951e-07 272.853 
-0.35 -0.73 -0.161449 0.190165 0.00975036 0.00972096 2.98331e-06 0.00975098 1.71562e-07 272.934 
-0.39 -0.71 0.239107 0.0948366 0.00978337 0.00971226 -1.22301e-06 0.00975292 1.71746e-07 272.696 
-0.43 -0.69 -7.3115e-05 0.25091 0.00980682 0.00972798 1.1056e-05 0.00976967 1.7231e-07 272.27 
-0.33 -0.73 -0.325532 0.0800659 0.00975098 0.00970475 1.22035e-05 0.00974506 1.71759e-07 272.455 
-0.37 -0.71 0.102542 -0.0049461 0.00976366 0.0097196 1.12952e-05 0.00975914 1.71837e-07 272.725 
-0.41 -0.69 0.100609 -0.0361175 0.00978722 0.00970759 2.68435e-06 0.00974855 1.71801e-07 272.486 
-0.35 -0.71 -0.165748 0.663093 0.00975635 0.0097179 5.35288e-06 0.00976617 1.71845e-07 272.909 
-0.39 -0.69 0.0736599 0.341972 0.00976869 0.00969302 1.15805e-05 0.00973306 1.71609e-07 272.358 
-0.37 -0.69 -0.11004 0.244353 0.00978144 0.0097166 1.13763e-05 0.00976197 1.71755e-07 272.935 
-0.35 -0.69 0.0220247 0.807533 0.00978453 0.00973084 1.86918e-05 0.00976361 1.71619e-07 273.196 
-0.35 -0.67 -0.141239 0.664555 0.00978597 0.00974636 1.43302e-05 0.00975866 1.71523e-07 273.21 
-0.33 -0.67 -0.171147 0.581363 0.00977292 0.00971474 1.10995e-06 0.00974899 1.71591e-07 272.832 
-0.33 -0.75 0.451857 0.208792 0.00973632 0.00970768 1.07774e-06 0.00972761 1.71534e-07 272.324 
-0.31 -0.73 -0.115209 0.989736 0.00976093 0.009735 -7.61416e-06 0.00975153 1.71724e-07 272.693 
-0.29 -0.73 0.142373 1.089 0.00975059 0.00969668 -8.74871e-07 0.00972894 1.71268e-07 272.784 
-0.33 -0.71 -0.468474 0.0341685 0.00976056 0.00972151 3.49533e-06 0.00974459 1.71562e-07 272.754 
-0.27 -0.73 -0.0261913 0.579647 0.00975516 0.00971245 1.26731e-05 0.00974486 1.71151e-07 273.418 
-0.31 -0.71 -0.248036 0.574217 0.00974422 0.00972859 9.99325e-06 0.00975716 1.71872e-07 272.615 
-0.29 -0.71 0.0515016 0.808179 0.00973532 0.00968625 6.92286e-06 0.00972775 1.71201e-07 272.858 
-0.33 -0.69 -0.25571 0.316469 0.00977876 0.00971194 -2.03016e-06 0.00975062 1.71784e-07 272.571 
-0.27 -0.71 0.251364 0.683893 0.00974618 0.00970495 5.91928e-07 0.00972867 1.71202e-07 272.883 
-0.31 -0.69 -0.59547 0.260625 0.00978305 0.00972623 1.61385e-05 0.00976223 1.72012e-07 272.535 
-0.29 -0.69 -0.420919 0.516454 0.00977269 0.00969935 9.21559e-06 0.00974807 1.71648e-07 272.716 
-0.27 -0.69 -0.141481 0.772087 0.00977489 0.00970678 -1.53974e-07 0.00975397 1.71344e-07 273.365 
-0.31 -0.67 -0.236779 0.621786 0.00976815 0.00970506 7.70187e-06 0.00973962 1.71536e-07 272.657 
-0.29 -0.67 -0.475869 0.529461 0.00977912 0.00972165 1.18675e-05 0.00975626 1.71481e-07 273.21 
-0.41 -0.83 0.0815599 0.544491 0.00976006 0.00973052 -1.97515e-07 0.00975069 1.71636e-07 272.809 
-0.39 -0.83 -0.0376941 0.470445 0.00975737 0.00972265 1.39192e-05 0.00973588 1.71409e-07 272.754 
-0.37 -0.83 -0.196646 0.107952 0.00974513 0.00971955 1.30009e-05 0.00974107 1.71581e-07 272.627 
-0.35 -0.83 -0.217077 0.0892984 0.00975248 0.0097206 1.15566e-05 0.00973658 1.71418e-07 272.76 
-0.33 -0.83 -0.0851672 0.134473 0.00975165 0.00969761 1.13623e-05 0.00972303 1.70913e-07 273.186 
-0.31 -0.83 0.0423264 -0.395986 0.00974587 0.00969942 1.17484e-05 0.00973269 1.71321e-07 272.805 
-0.29 -0.83 -0.240626 0.167936 0.00976377 0.00973414 1.2832e-05 0.00976492 1.71509e-07 273.409 
-0.27 -0.83 -0.217773 0.419714 0.00977498 0.0097332 1.05308e-05 0.00976864 1.71487e-07 273.548 
-0.27 -0.67 -0.704836 0.528225 0.00975659 0.00969968 1.59993e-05 0.00974467 1.71546e-07 272.783 
-0.25 -0.67 -0.414202 0.747538 0.00976886 0.00970492 2.12577e-06 0.00974985 1.71556e-07 272.912 
-0.25 -0.81 -0.160714 0.271282 0.00976875 0.00971803 1.16979e-05 0.00975204 1.71354e-07 273.295 
-0.25 -0.79 -0.556093 0.199137 0.00977265 0.00974108 1.53393e-05 0.00976015 1.71426e-07 273.407 
-0.35 -0.55 -0.266634 0.898281 0.00979439 0.00972225 6.58123e-06 0.00975915 1.71788e-07 272.803 
-0.39 -0.53 -0.0084875 1.13825 0.00977535 0.00969403 3.66757e-06 0.00974767 1.71411e-07 273.081 
-0.37 -0.57 -0.258363 0.856276 0.00977197 0.00971124 7.11044e-06 0.00974582 1.71396e-07 273.053 
-0.41 -0.55 0.0766524 0.959462 0.0097438 0.00970788 -1.06713e-05 0.00973371 1.71502e-07 272.545 
-0.45 -0.53 0.199976 0.517927 0.00977259 0.00969496 -4.65513e-06 0.00972235 1.7118e-07 272.74 
-0.35 -0.57 -0.0587955 0.821621 0.00976279 0.00970904 2.59934e-05 0.00974092 1.71332e-07 273.019 
-0.39 -0.55 -0.29449 0.911658 0.00976071 0.00970106 1.55695e-05 0.00974846 1.71486e-07 272.984 
-0.43 -0.53 -0.158854 0.336316 0.00977591 0.00969903 1.03504e-06 0.00973641 1.71565e-07 272.522 
-0.47 -0.51 -0.317352 0.513553 0.00976798 0.00968718 -4.16489e-06 0.00971971 1.71328e-07 272.429 
-0.37 -0.55 -0.182296 0.787121 0.00975251 0.00968641 2.17504e-06 0.00973165 1.71181e-07 272.998 
-0.41 -0.53 -0.217127 0.683711 0.00978169 0.0097036 3.11543e-06 0.00974152 1.71551e-07 272.686 
-0.45 -0.51 -0.490295 0.879482 0.00977415 0.00968969 3.38701e-06 0.00972991 1.71531e-07 272.393 
-0.37 -0.53 -0.233387 1.01881 0.00978088 0.0097147 -1.26418e-06 0.00975543 1.7177e-07 272.728 
-0.41 -0.51 -0.581981 0.618562 0.00976755 0.00970141 2.43992e-06 0.00973439 1.71476e-07 272.606 
-0.35 -0.53 -0.530444 0.956394 0.00976053 0.00970364 -6.12022e-06 0.00972954 1.71517e-07 272.405 
-0.39 -0.51 -0.56963 1.04711 0.00977136 0.0096905 -3.46632e-06 0.00973017 1.71453e-07 272.525 
-0.37 -0.51 -0.561264 1.1543 0.00978392 0.00971633 7.4237e-06 0.00975086 1.71753e-07 272.628 
-0.35 -0.51 -0.432688 0.89841 0.00977445 0.00969888 1.17749e-05 0.00973084 1.71411e-07 272.611 
-0.49 -0.65 0.0792176 0.361126 0.00976534 0.00971574 1.78216e-05 0.0097425 1.71272e-07 273.158 
-0.47 -0.65 -0.268269 0.316454 0.0097728 0.00972805 1.5958e-05 0.00975797 1.71783e-07 272.779 
-0.45 -0.65 -0.110333 0.308087 0.00976165 0.00972784 3.2991e-06 0.00975462 1.71994e-07 272.35 
-0.49 -0.63 -0.0979781 0.398248 0.00975352 0.00971034 8.72091e-06 0.00974649 1.7189e-07 272.288 
-0.43 -0.65 0.0391457 0.802128 0.00975023 0.00970001 6.97902e-06 0.00973553 1.71306e-07 272.909 
-0.47 -0.63 -0.112412 0.441939 0.00976687 0.00973101 2.39778e-06 0.00976293 1.72122e-07 272.38 
-0.41 -0.65 -0.0118891 0.316492 0.00976582 0.00971032 1.20012e-05 0.0097358 1.71395e-07 272.775 
-0.45 -0.63 -0.44724 0.426121 0.0097783 0.00972761 1.81511e-05 0.00976182 1.72046e-07 272.469 
-0.49 -0.61 -0.0321624 0.628583 0.00976001 0.00970474 -1.25567e-05 0.00974084 1.71686e-07 272.453 
-0.39 -0.65 -0.000285271 0.183188 0.00975723 0.00971629 1.11499e-05 0.00974027 1.71381e-07 272.922 
-0.43 -0.63 -0.510409 0.452088 0.00977789 0.00971276 4.45368e-06 0.00974907 1.7143e-07 273.09 
-0.47 -0.61 -0.380688 0.521764 0.00976433 0.00973148 7.07973e-07 0.00976271 1.71923e-07 272.688 
-0.37 -0.65 -0.632535 0.315009 0.0097551 0.00969224 -3.4527e-06 0.00972305 1.71091e-07 272.901 
-0.41 -0.63 -0.542498 0.346737 0.009776 0.00969652 1.20493e-05 0.00974073 1.71351e-07 272.982 
-0.45 -0.61 -0.258785 0.659945 0.00977354 0.00972815 -7.58474e-06 0.00976474 1.71783e-07 272.967 
-0.49 -0.59 -0.0596403 0.549021 0.00975784 0.00969363 -1.87286e-05 0.00974118 1.71475e-07 272.799 
-0.35 -0.65 -0.683082 0.441523 0.00976727 0.0097484 1.13998e-05 0.00974653 1.71422e-07 273.032 
-0.39 -0.63 -0.500794 0.44049 0.00978758 0.00972647 1.55019e-05 0.00974949 1.71499e-07 272.992 
-0.43 -0.61 -0.103594 0.551821 0.00978416 0.00970808 1.36713e-05 0.00975247 1.71326e-07 273.352 
-0.47 -0.59 0.0404466 0.777123 0.0097755 0.00972707 -1.50263e-05 0.00976506 1.71765e-07 273.005 
-0.37 -0.63 -0.519856 0.65864 0.00976509 0.00970068 7.32593e-06 0.00973118 1.71326e-07 272.754 
-0.41 -0.61 -0.311115 0.307898 0.00978257 0.00970965 9.39168e-06 0.00974055 1.71199e-07 273.22 
-0.45 -0.59 -0.080795 0.183148 0.00977761 0.00971722 -4.18881e-06 0.00976497 1.71624e-07 273.226 
-0.49 -0.57 -0.00940354 0.486941 0.00978442 0.0097034 -2.55997e-05 0.00974298 1.71362e-07 273.029 
-0.35 -0.63 -0.65079 0.288938 0.00975628 0.00972064 9.55027e-06 0.00972947 1.71296e-07 272.755 
-0.39 -0.61 -0.233638 0.274808 0.00979094 0.00970797 1.28975e-05 0.00974519 1.71358e-07 273.096 
-0.43 -0.59 0.269728 0.584402 0.00977098 0.00969958 6.82483e-06 0.00974051 1.71624e-07 272.542 
-0.47 -0.57 -0.0917122 0.742998 0.00976893 0.00971379 -1.13357e-05 0.00973968 1.71377e-07 272.911 
-0.37 -0.61 -0.163851 0.649323 0.00979589 0.0097169 2.00139e-05 0.00975488 1.71412e-07 273.282 
-0.41 -0.59 0.548752 0.401708 0.00977755 0.00971177 3.99976e-06 0.00974541 1.71178e-07 273.39 
-0.45 -0.57 0.0504454 0.0630155 0.0097586 0.0096944 -3.68628e-07 0.00973013 1.71372e-07 272.653 
-0.49 -0.55 -0.107075 0.595934 0.00977087 0.00970174 -1.26423e-05 0.00973879 1.71544e-07 272.621 
-0.35 -0.61 -0.233223 0.483696 0.00978962 0.00971186 1.07048e-05 0.00974381 1.7136e-07 273.055 
-0.39 -0.59 0.23812 0.57455 0.00977892 0.00967483 8.68578e-06 0.00972823 1.71068e-07 273.084 
-0.43 -0.57 0.195698 0.393089 0.00976324 0.00968882 -9.95454e-07 0.00973415 1.71164e-07 273.096 
-0.47 -0.55 0.0292597 0.671497 0.00977267 0.00969215 -7.18194e-06 0.00972989 1.71633e-07 272.231 
-0.33 -0.61 -0.659369 0.496941 0.00978918 0.00970694 2.17011e-05 0.00975433 1.71528e-07 273.082 
-0.37 -0.59 -0.0696698 0.502143 0.00978435 0.00974126 2.30089e-05 0.00976372 1.71634e-07 273.176 
-0.41 -0.57 -0.00329295 0.619459 0.00978091 0.00972431 1.82165e-05 0.00975086 1.71516e-07 273.004 
-0.45 -0.55 -0.0884532 0.0735274 0.00976117 0.00969226 -8.77637e-07 0.00971705 1.71367e-07 272.293 
-0.49 -0.53 0.196453 0.598806 0.00977121 0.00969522 3.40827e-06 0.00973338 1.71359e-07 272.764 
-0.35 -0.59 -0.517421 0.878456 0.00978586 0.00969835 1.55645e-05 0.00973997 1.71645e-07 272.494 
-0.39 -0.57 -0.170891 0.839664 0.00976427 0.00968527 1.51651e-06 0.00973075 1.71158e-07 273.011 
-0.43 -0.55 -0.140462 0.206714 0.00976122 0.00969738 8.05582e-06 0.00973935 1.71609e-07 272.534 
-0.47 -0.53 0.190174 0.336897 0.00976303 0.00968762 1.66797e-06 0.00972189 1.7124e-07 272.632 
-0.29 -0.57 -0.53575 0.363665 0.00976454 0.00969605 2.28775e-05 0.00973341 1.71285e-07 272.883 
-0.33 -0.55 -0.584418 0.963126 0.00980505 0.0097276 3.48869e-06 0.00975727 1.71603e-07 273.044 
-0.29 -0.61 -0.484369 0.726279 0.00976629 0.00971035 2.15512e-06 0.00973981 1.71557e-07 272.629 
-0.33 -0.59 -0.378908 1.03412 0.00977877 0.00971256 2.14169e-05 0.00975364 1.71499e-07 273.108 
-0.27 -0.61 -0.615943 0.605261 0.00978408 0.00969882 1.95476e-05 0.00974897 1.71599e-07 272.818 
-0.31 -0.59 -0.734341 0.808797 0.00978426 0.00974104 1.4767e-05 0.00976099 1.71724e-07 272.957 
-0.29 -0.59 -0.5105 0.128595 0.00979215 0.00970294 1.30533e-05 0.00974584 1.71413e-07 273.027 
-0.33 -0.57 -0.235582 0.901437 0.00976638 0.00972151 3.33984e-06 0.00973589 1.71352e-07 272.845 
-0.27 -0.59 -0.18703 0.800539 0.00977371 0.00969034 2.04774e-05 0.00973415 1.71142e-07 273.131 
-0.31 -0.57 -0.243297 0.761455 0.00977181 0.00972976 2.71248e-06 0.00975429 1.71626e-07 272.925 
-0.27 -0.57 -0.724945 0.600196 0.00976205 0.0096884 2.9769e-05 0.00974047 1.71472e-07 272.783 
-0.31 -0.55 -0.125346 0.952002 0.00978723 0.0097056 2.77345e-05 0.00974966 1.71296e-07 273.321 
-0.29 -0.55 -0.422746 0.585579 0.00976944 0.00969618 3.1602e-05 0.00973057 1.71121e-07 273.065 
-0.33 -0.53 -0.296934 1.01607 0.00975567 0.00971329 1.46929e-05 0.0097239 1.71045e-07 272.998 
-0.27 -0.55 -0.426654 0.490922 0.00975779 0.00968344 1.76848e-05 0.00971858 1.71384e-07 272.309 
-0.31 -0.53 -0.407338 0.763212 0.00976259 0.0096972 2.64084e-05 0.00973259 1.71136e-07 273.098 
-0.29 -0.53 -0.354354 0.689378 0.00979697 0.00969926 3.2232e-05 0.00975156 1.71399e-07 273.21 
-0.33 -0.51 -0.563411 0.933005 0.00977064 0.00970272 1.38161e-05 0.00973415 1.71204e-07 273.033 
-0.27 -0.53 -0.481964 0.584614 0.00979334 0.00969275 2.80164e-05 0.00974427 1.71339e-07 273.101 
-0.31 -0.51 -0.263671 0.636484 0.00976558 0.00969547 9.51751e-06 0.00972445 1.71248e-07 272.69 
-0.29 -0.51 -0.158966 0.722876 0.00975631 0.00968367 1.90491e-05 0.0097265 1.71133e-07 272.931 
-0.27 -0.51 -0.254656 0.951196 0.00977929 0.00969928 3.4661e-05 0.00974656 1.71248e-07 273.311 
-0.33 -0.65 -0.585301 0.488046 0.00977022 0.00971641 1.88397e-05 0.00974852 1.71313e-07 273.261 
-0.31 -0.65 -0.467976 0.768893 0.00976643 0.00970976 1.40039e-05 0.00974941 1.71627e-07 272.786 
-0.29 -0.65 -0.463027 0.660767 0.00975049 0.00970405 2.11905e-05 0.00974047 1.71496e-07 272.744 
-0.33 -0.63 -0.465204 0.67783 0.00975682 0.00972762 2.13801e-05 0.0097507 1.71649e-07 272.787 
-0.27 -0.65 -0.534013 0.559091 0.00976993 0.0097183 1.15218e-05 0.00975477 1.71626e-07 272.937 
-0.31 -0.63 -0.657489 0.543051 0.00974879 0.00969648 1.4881e-05 0.00973829 1.71292e-07 273.009 
-0.25 -0.65 -0.690619 0.377764 0.00975644 0.00970115 6.53032e-06 0.00973708 1.71613e-07 272.464 
-0.29 -0.63 -0.865535 0.523389 0.0097748 0.00972254 7.70877e-06 0.00974886 1.71577e-07 272.851 
-0.27 -0.63 -0.75113 0.603449 0.00975158 0.00970842 9.10617e-06 0.00974364 1.71653e-07 272.584 
-0.31 -0.61 -0.788679 0.78221 0.0097899 0.00972918 1.849e-05 0.0097601 1.71685e-07 272.994 
-0.49 -0.67 0.119687 0.53408 0.00977944 0.0097226 6.77246e-06 0.00975394 1.71378e-07 273.311 
-0.47 -0.67 0.0480703 -0.261648 0.0097638 0.00971874 -1.20251e-06 0.00973941 1.71541e-07 272.643 
-0.45 -0.67 0.107605 0.885748 0.00975952 0.009727 6.34382e-06 0.00974936 1.71721e-07 272.636 