ITEM: TIMESTEP
841000
ITEM: NUMBER OF CELLS
5000
ITEM: BOX BOUNDS ss ss pp
-0.5 0.5
-1 1
-0.5 0.5
ITEM: CELLS xc yc f_U[*] f_V[*] f_Tau[1] f_Tau[2] f_Tau[3] f_Press[*] f_Mrho[*] f_Ttra[*] 
-0.49 -0.99 -0.132196 0.0355015 0.00976889 0.00973917 6.68473e-06 0.00976845 1.7188e-07 272.918 
-0.47 -0.99 -0.0818721 -0.0839277 0.00975381 0.00972865 -9.40515e-06 0.00974822 1.71663e-07 272.696 
-0.45 -0.99 -0.218073 0.0589451 0.00973443 0.00972025 1.03568e-05 0.00973177 1.71339e-07 272.751 
-0.49 -0.97 -0.100422 0.121799 0.00972037 0.00973685 2.02847e-05 0.00973166 1.71124e-07 273.091 
-0.43 -0.99 -0.376648 0.107838 0.00971786 0.00972893 6.12007e-06 0.00973908 1.71132e-07 273.285 
-0.47 -0.97 -0.149341 0.0809046 0.00971084 0.00972246 2.0751e-05 0.00972927 1.71272e-07 272.787 
-0.41 -0.99 -0.388435 -0.000761697 0.00971494 0.00974262 -1.30307e-06 0.00973698 1.71459e-07 272.706 
-0.45 -0.97 -0.0352794 -0.031112 0.00971767 0.00972666 2.93044e-06 0.00972823 1.7141e-07 272.539 
-0.49 -0.95 0.150134 0.124856 0.00969993 0.00972159 -4.56525e-06 0.00972001 1.7105e-07 272.882 
-0.39 -0.99 -0.376734 -0.249065 0.0097216 0.00972156 -9.80585e-06 0.0097219 1.70802e-07 273.33 
-0.43 -0.97 -0.0209788 0.127404 0.00973854 0.00974092 -4.68631e-06 0.0097467 1.71417e-07 273.046 
-0.47 -0.95 0.146174 0.131163 0.00972595 0.00973051 1.91415e-06 0.00972643 1.71414e-07 272.482 
-0.37 -0.99 -0.185395 0.102322 0.00972017 0.00971667 1.22677e-05 0.00972009 1.71032e-07 272.912 
-0.41 -0.97 -0.121762 0.0581444 0.0097341 0.00974648 -4.3171e-06 0.00974852 1.71308e-07 273.269 
-0.45 -0.95 0.216171 -0.279755 0.00974455 0.00974674 1.13068e-05 0.00974746 1.71729e-07 272.57 
-0.49 -0.93 0.0436915 0.00888179 0.00974553 0.00972801 -1.71491e-06 0.00974667 1.71438e-07 273.011 
-0.35 -0.99 -0.197713 -0.10342 0.00969848 0.00967439 1.29405e-05 0.00968489 1.70533e-07 272.72 
-0.39 -0.97 0.202232 -0.216092 0.00970659 0.0097109 1.64599e-05 0.00972221 1.71211e-07 272.687 
-0.43 -0.95 0.290875 0.15287 0.00974168 0.00972967 -4.61769e-06 0.00973634 1.71272e-07 272.986 
-0.47 -0.93 0.243351 0.0721348 0.00974933 0.00973855 -3.59685e-06 0.00974517 1.71551e-07 272.789 
-0.33 -0.99 -0.0678392 0.121189 0.00969307 0.00969034 1.63841e-05 0.00969222 1.70601e-07 272.817 
-0.37 -0.97 0.00803967 -0.0907933 0.00968606 0.0097088 2.31798e-05 0.00970081 1.70737e-07 272.842 
-0.41 -0.95 0.0786404 -0.187709 0.00973656 0.00972586 8.32696e-06 0.00972892 1.7131e-07 272.716 
-0.45 -0.93 0.184801 -0.0975311 0.00973984 0.00973619 -1.24751e-05 0.00972553 1.71441e-07 272.413 
-0.49 -0.91 0.145612 -0.101537 0.00979727 0.00974782 6.71115e-06 0.0097747 1.71556e-07 273.607 
-0.35 -0.97 -0.054075 -0.0957913 0.00969175 0.00968459 1.0164e-05 0.00969052 1.70387e-07 273.112 
-0.39 -0.95 -0.0986688 -0.306037 0.00973261 0.00971511 1.68612e-05 0.00971617 1.71133e-07 272.642 
-0.43 -0.93 0.340537 -0.0101813 0.00974165 0.00972115 -3.56963e-06 0.00971562 1.70956e-07 272.909 
-0.47 -0.91 -0.209963 0.109142 0.00977585 0.00973173 -7.07803e-06 0.00974636 1.71675e-07 272.626 
-0.33 -0.97 -0.179163 -0.149436 0.00970171 0.00968536 7.89691e-06 0.00970534 1.71042e-07 272.482 
-0.37 -0.95 -0.184087 0.094496 0.00974758 0.00970711 3.15836e-05 0.00973035 1.71152e-07 273.008 
-0.41 -0.93 0.114722 -0.00215303 0.0097417 0.00972775 3.0414e-05 0.00972106 1.71084e-07 272.857 
-0.45 -0.91 -0.028627 -0.364544 0.00977654 0.00973694 -4.88699e-07 0.00974173 1.71447e-07 272.857 
-0.49 -0.89 -0.0966397 0.0318917 0.00980842 0.00975524 2.71191e-06 0.00976965 1.71661e-07 273.299 
-0.35 -0.95 -0.0734185 0.0235237 0.00974979 0.00970544 2.21287e-06 0.00973518 1.71588e-07 272.45 
-0.39 -0.93 -0.245782 0.055219 0.009735 0.00970265 1.52094e-05 0.00971215 1.71007e-07 272.73 
-0.43 -0.91 -0.18539 -0.0213218 0.00975093 0.00970876 1.23455e-05 0.00972569 1.70816e-07 273.415 
-0.47 -0.89 0.137228 -0.0829121 0.00979299 0.00974228 1.15856e-05 0.0097572 1.71915e-07 272.547 
-0.37 -0.93 -0.197045 -0.0883447 0.00975738 0.00970516 -1.01587e-05 0.00973482 1.71335e-07 272.842 
-0.41 -0.91 -0.235719 0.625801 0.00975485 0.0097051 9.43984e-06 0.00972412 1.71328e-07 272.553 
-0.45 -0.89 -0.210624 -0.0580043 0.00977319 0.00972123 2.76317e-06 0.00973999 1.71235e-07 273.147 
-0.49 -0.87 0.0657353 -0.0338895 0.00975008 0.00973526 4.14804e-06 0.00973468 1.71383e-07 272.762 
-0.35 -0.93 -0.552255 0.328405 0.00977035 0.00971932 1.17874e-05 0.00973396 1.71338e-07 272.814 
-0.39 -0.91 -0.329414 -0.165738 0.00977901 0.00973497 7.67602e-06 0.00976203 1.71622e-07 273.147 
-0.43 -0.89 -0.425823 0.224102 0.00978102 0.00971186 1.84813e-05 0.00975847 1.71378e-07 273.437 
-0.47 -0.87 0.129994 0.194482 0.0097482 0.00974 8.72533e-06 0.00974002 1.71361e-07 272.948 
-0.37 -0.91 -0.112516 0.0550444 0.00976049 0.0097092 4.25215e-06 0.00974014 1.71398e-07 272.891 
-0.41 -0.89 -0.450382 0.548013 0.00978554 0.00970204 -1.46581e-06 0.0097554 1.71699e-07 272.84 
-0.45 -0.87 -0.39341 0.161593 0.00976588 0.00970588 1.44333e-05 0.0097504 1.71485e-07 273.039 
-0.49 -0.85 0.0205993 -0.110231 0.00975382 0.00972334 -2.36591e-06 0.00973346 1.71578e-07 272.419 
-0.35 -0.91 -0.14465 0.405136 0.0097506 0.00970863 -3.47341e-06 0.00972021 1.71087e-07 272.828 
-0.39 -0.89 -0.277588 0.0553303 0.00977731 0.00973013 1.37238e-05 0.00975974 1.71665e-07 273.016 
-0.43 -0.87 -0.177645 0.186281 0.00976257 0.00973364 9.75057e-06 0.00976207 1.71827e-07 272.824 
-0.47 -0.85 -0.0624028 0.419091 0.00977235 0.00973995 1.18552e-05 0.00976226 1.71575e-07 273.229 
-0.33 -0.91 -0.623918 0.170983 0.00976424 0.00970837 6.17279e-06 0.00972649 1.71239e-07 272.762 
-0.37 -0.89 -0.366411 -0.15445 0.00977409 0.00972739 1.94909e-05 0.00975714 1.71533e-07 273.152 
-0.41 -0.87 -0.280378 0.583963 0.00976249 0.00972182 1.05099e-05 0.00975404 1.71699e-07 272.802 
-0.45 -0.85 -0.114697 0.176885 0.00976751 0.0097099 8.42787e-06 0.00974222 1.71466e-07 272.841 
-0.35 -0.89 -0.411451 0.714324 0.00977018 0.00970719 -1.05533e-06 0.00973364 1.71389e-07 272.723 
-0.39 -0.87 -0.343336 -0.219779 0.00976766 0.00970384 -2.13425e-06 0.00973061 1.71566e-07 272.357 
-0.43 -0.85 -0.299919 0.355864 0.00977846 0.00972835 -5.92477e-06 0.0097418 1.71659e-07 272.522 
-0.37 -0.87 -0.473016 0.0886998 0.00977132 0.00973571 3.54703e-06 0.00975633 1.71649e-07 272.945 
-0.41 -0.85 -0.256208 0.681756 0.00978392 0.00972267 1.00418e-05 0.00974745 1.71733e-07 272.564 
-0.35 -0.87 -0.00539265 0.341408 0.00978178 0.00972136 8.44165e-06 0.00975918 1.71661e-07 273.006 
-0.39 -0.85 -0.472178 0.22354 0.00976809 0.00971743 8.09521e-06 0.00973681 1.71607e-07 272.466 
-0.33 -0.87 -0.0915918 0.25175 0.00977049 0.00970439 1.19118e-05 0.00974254 1.71294e-07 273.124 
-0.37 -0.85 -0.789348 -0.381486 0.00977219 0.00972433 5.15503e-06 0.00975627 1.71714e-07 272.84 
-0.35 -0.85 -0.545867 0.0495769 0.00976293 0.0097165 1.28224e-05 0.00974635 1.71451e-07 272.982 
-0.33 -0.85 -0.393781 0.567754 0.00974939 0.00969442 1.96081e-05 0.00972292 1.71182e-07 272.753 
-0.31 -0.99 -0.0838004 0.0509866 0.00970052 0.00967603 1.56758e-05 0.00968874 1.70797e-07 272.407 
-0.29 -0.99 -0.407866 0.296342 0.00970812 0.0096927 -9.25114e-06 0.00969361 1.70815e-07 272.515 
-0.27 -0.99 -0.305291 -0.30195 0.00974785 0.00973749 -1.53672e-06 0.00973327 1.71204e-07 273.008 
-0.31 -0.97 -0.496332 0.265122 0.00973627 0.00970727 -1.23527e-05 0.00972962 1.71481e-07 272.465 
-0.29 -0.97 -0.335729 0.152447 0.00974307 0.00970319 -1.85672e-06 0.00972858 1.71183e-07 272.909 
-0.33 -0.95 -0.25011 0.139736 0.00975401 0.00970101 -1.25287e-05 0.00972864 1.71367e-07 272.618 
-0.27 -0.97 0.0872693 -0.27784 0.0097211 0.00971668 -6.64624e-06 0.00972608 1.71518e-07 272.307 
-0.31 -0.95 -0.189064 0.439318 0.00974106 0.00969546 -4.15897e-06 0.00971611 1.71473e-07 272.099 
-0.29 -0.95 -0.103686 -0.266271 0.00973427 0.00969433 2.2799e-06 0.00971213 1.71382e-07 272.132 
-0.33 -0.93 -0.327946 -0.0360304 0.00976095 0.00970108 -2.25191e-07 0.00972683 1.71248e-07 272.758 
-0.27 -0.95 -0.342838 -0.20153 0.00974009 0.00974197 -2.53154e-06 0.00973702 1.71547e-07 272.567 
-0.31 -0.93 -0.347385 0.210925 0.00975786 0.00970253 -3.25438e-06 0.00972139 1.71263e-07 272.581 
-0.29 -0.93 -0.447491 9.92598e-05 0.00975911 0.00969106 -3.98858e-06 0.00972888 1.71658e-07 272.163 
-0.27 -0.93 -0.132845 -0.362642 0.00978144 0.00974228 -8.96815e-06 0.009772 1.72192e-07 272.521 
-0.31 -0.91 -0.350484 0.113294 0.00976992 0.00969642 6.21307e-06 0.00973951 1.71629e-07 272.506 
-0.29 -0.91 -0.294703 -0.244561 0.0097515 0.00970641 -1.67545e-05 0.00972193 1.71331e-07 272.487 
-0.33 -0.89 -0.162853 -0.130228 0.0097651 0.00971532 -8.79759e-06 0.00974043 1.71201e-07 273.213 
-0.27 -0.91 -0.605426 -0.277892 0.00973961 0.0097161 -9.38303e-06 0.00972424 1.71475e-07 272.324 
-0.31 -0.89 -0.159785 -0.0303236 0.0097687 0.00968702 -1.81488e-06 0.00973809 1.71562e-07 272.573 
-0.29 -0.89 0.0304586 -0.215352 0.0097713 0.00973364 -2.47439e-06 0.00975283 1.71439e-07 273.181 
-0.27 -0.89 -0.196295 0.18875 0.00975421 0.00970152 -4.19168e-06 0.00973449 1.71561e-07 272.474 
-0.31 -0.87 -0.263028 -0.125068 0.00973966 0.0096995 4.30758e-06 0.00972701 1.71315e-07 272.655 
-0.29 -0.87 -0.483012 -0.228922 0.00972791 0.00973028 3.32685e-06 0.0097414 1.71423e-07 272.887 
-0.27 -0.87 -0.479701 0.496367 0.00973541 0.00971196 -1.80131e-06 0.00972027 1.71369e-07 272.38 
-0.31 -0.85 -0.476769 -0.13638 0.00976796 0.00971403 1.54027e-05 0.00974011 1.71803e-07 272.247 
-0.29 -0.85 -0.338364 0.115859 0.00975458 0.0097292 1.36252e-05 0.0097486 1.71657e-07 272.716 
-0.27 -0.85 -0.431593 0.51228 0.00974025 0.00971705 1.38059e-06 0.00973816 1.70887e-07 273.651 
-0.25 -0.99 -0.233262 0.0284296 0.0097571 0.00976019 7.50877e-06 0.0097569 1.71628e-07 272.995 
-0.25 -0.97 -0.000974052 0.211797 0.00973916 0.00975641 -9.14047e-06 0.00975119 1.71439e-07 273.136 
-0.25 -0.95 -0.230536 0.249858 0.00972299 0.0097405 -4.61165e-06 0.0097455 1.71474e-07 272.92 
-0.25 -0.93 -0.312794 0.123968 0.00976689 0.00973147 1.28407e-05 0.00974377 1.71469e-07 272.879 
-0.25 -0.91 -0.192625 -0.0603072 0.00974761 0.00972404 9.93924e-06 0.0097339 1.71404e-07 272.708 
-0.25 -0.89 -0.641346 -0.00980314 0.00976487 0.00971459 1.83584e-06 0.00973494 1.71295e-07 272.91 
-0.25 -0.87 -0.908055 -0.0446363 0.0097266 0.00969973 3.0504e-06 0.00972003 1.70974e-07 273.003 
-0.25 -0.85 -0.209125 0.243018 0.00974859 0.00969926 -1.12092e-05 0.00973302 1.71106e-07 273.157 
-0.25 -0.83 -0.185609 0.0136873 0.00976411 0.00969446 1.31677e-06 0.00974658 1.7122e-07 273.356 
-0.33 -0.81 0.0758871 0.0152 0.00977631 0.00970564 4.6629e-06 0.00973852 1.71318e-07 272.973 
-0.31 -0.81 -0.218695 0.409103 0.00979705 0.00971657 6.44799e-06 0.00976323 1.71397e-07 273.539 
-0.29 -0.81 -0.212152 -0.239528 0.00978547 0.00973533 7.18959e-07 0.00976384 1.71501e-07 273.39 
-0.27 -0.81 0.0116614 0.344552 0.00978375 0.00972775 1.41091e-05 0.00977018 1.71655e-07 273.323 
-0.31 -0.79 0.227477 0.464752 0.0097595 0.00971785 1.65203e-06 0.00973595 1.71423e-07 272.734 
-0.29 -0.79 -0.133712 0.0773106 0.00975982 0.00972533 -1.27051e-06 0.00973634 1.71315e-07 272.916 
-0.33 -0.77 -0.223095 0.0961733 0.00976149 0.00972231 1.64844e-05 0.00973386 1.71478e-07 272.588 
-0.27 -0.79 -0.511219 0.171946 0.00975021 0.00970235 5.95395e-06 0.00973122 1.71054e-07 273.19 
-0.31 -0.77 -0.182165 0.376748 0.00974965 0.00970601 1.69204e-06 0.0097299 1.71409e-07 272.587 
-0.29 -0.77 -0.2784 0.72693 0.00976401 0.00972743 9.47953e-06 0.00974203 1.7159e-07 272.64 
-0.27 -0.77 -0.563425 0.274342 0.00976976 0.00969686 2.97189e-06 0.00974343 1.71661e-07 272.565 
-0.31 -0.75 0.0884531 0.805052 0.0097629 0.00971636 1.37583e-07 0.00975838 1.71861e-07 272.665 
-0.29 -0.75 -0.440934 0.928152 0.00976317 0.00973271 1.23607e-05 0.0097433 1.71599e-07 272.66 
-0.27 -0.75 -0.644968 0.517701 0.00975792 0.00969055 1.30486e-05 0.00972767 1.71316e-07 272.672 
-0.49 -0.83 -0.162924 0.0912459 0.00975671 0.00972096 -1.05186e-06 0.0097478 1.71485e-07 272.967 
-0.47 -0.83 -0.0583516 0.266965 0.00975288 0.00972093 -7.94626e-06 0.00973923 1.71481e-07 272.734 
-0.45 -0.83 0.28874 0.126524 0.00975863 0.00973287 5.15562e-07 0.00974752 1.71327e-07 273.211 
-0.49 -0.81 0.120883 -0.101255 0.00977146 0.00972539 -5.57815e-06 0.00976459 1.7167e-07 273.143 
-0.43 -0.83 0.0864798 0.459608 0.00974135 0.00970708 3.52059e-06 0.00971836 1.71289e-07 272.455 
-0.47 -0.81 0.0390297 0.234735 0.00976433 0.00972393 -1.172e-06 0.0097628 1.71693e-07 273.055 
-0.45 -0.81 -0.166549 0.208485 0.00976888 0.00971681 1.10528e-05 0.00974593 1.71782e-07 272.443 
-0.49 -0.79 -0.236289 0.21089 0.00974965 0.00972875 5.23065e-06 0.00974037 1.71593e-07 272.587 
-0.43 -0.81 -0.309064 0.594751 0.00978904 0.00972424 6.28255e-07 0.00974874 1.71743e-07 272.584 
-0.47 -0.79 -0.068801 0.12453 0.00975124 0.00971886 -5.82411e-06 0.00973368 1.71531e-07 272.499 
-0.41 -0.81 -0.332634 0.935292 0.00975026 0.00969923 1.48974e-05 0.00973354 1.71517e-07 272.517 
-0.45 -0.79 -0.273522 0.454634 0.00974417 0.00972004 -8.62439e-06 0.00972791 1.71433e-07 272.494 
-0.49 -0.77 0.280767 0.0362857 0.00974708 0.00973628 9.17834e-06 0.00973643 1.71349e-07 272.866 
-0.39 -0.81 -0.37545 0.266749 0.00974339 0.00970954 1.12344e-05 0.00975328 1.7175e-07 272.7 
-0.43 -0.79 -0.517691 0.605694 0.00975422 0.00971111 8.65221e-06 0.0097349 1.71431e-07 272.692 
-0.47 -0.77 -0.168299 0.415152 0.00974102 0.00971587 2.28506e-06 0.00972402 1.71123e-07 272.878 
-0.37 -0.81 0.307585 -0.000318202 0.00975367 0.00973368 2.54083e-07 0.00974968 1.71749e-07 272.599 
-0.41 -0.79 -0.59201 0.69138 0.00978083 0.00970118 9.07991e-06 0.00974802 1.71922e-07 272.279 
-0.45 -0.77 -0.786254 1.13412 0.00975519 0.00973813 -7.44428e-06 0.00974593 1.71652e-07 272.649 
-0.35 -0.81 0.133401 0.20898 0.00976213 0.00970611 4.64453e-06 0.00974887 1.71572e-07 272.859 
-0.39 -0.79 -0.0410803 -0.142918 0.00978856 0.00971356 7.00439e-06 0.00975685 1.71814e-07 272.698 
-0.43 -0.77 -0.89482 0.55398 0.00973092 0.00969296 -6.26743e-06 0.00970971 1.71111e-07 272.494 
-0.37 -0.79 -0.207148 -0.0205285 0.00979941 0.00974433 9.48313e-06 0.00976996 1.72016e-07 272.744 
-0.41 -0.77 -0.412217 0.0265422 0.00972548 0.00969726 3.3801e-06 0.00971368 1.71433e-07 272.094 
-0.35 -0.79 0.118237 0.313774 0.00977727 0.00970568 3.84423e-06 0.00974368 1.71759e-07 272.416 
-0.39 -0.77 -0.00995173 -0.103169 0.00974208 0.0097312 -1.64091e-06 0.00975445 1.71754e-07 272.726 
-0.43 -0.75 0.0752372 0.471884 0.00975047 0.00969615 5.88664e-06 0.00972961 1.7136e-07 272.656 
-0.33 -0.79 0.0618189 0.0975674 0.00976095 0.00970645 2.27725e-06 0.00972577 1.71501e-07 272.325 
-0.37 -0.77 0.244225 -0.0760194 0.00974055 0.00972104 3.02868e-06 0.00973254 1.71371e-07 272.721 
-0.41 -0.75 -0.00625311 -0.0282728 0.00975244 0.00971195 1.02443e-06 0.00973399 1.71461e-07 272.62 
-0.35 -0.77 0.036015 0.436811 0.00975653 0.00971397 7.27973e-06 0.0097413 1.71046e-07 273.486 
-0.39 -0.75 -0.154288 -0.00916188 0.0097437 0.00971123 -4.29496e-06 0.00974041 1.71563e-07 272.636 
-0.49 -0.75 -0.15994 0.102491 0.00973214 0.00973194 -7.5889e-07 0.00973122 1.70708e-07 273.743 
-0.47 -0.75 -0.307238 0.781439 0.00974707 0.00973874 -1.27426e-05 0.00973574 1.7103e-07 273.355 
-0.45 -0.75 -0.00108983 1.01472 0.00974391 0.00971353 -4.36156e-06 0.009726 1.71398e-07 272.495 
-0.49 -0.73 -0.11273 0.346154 0.00978529 0.0097285 -1.79575e-06 0.00976051 1.71145e-07 273.866 
-0.47 -0.73 -0.0478021 0.876084 0.00977497 0.0097516 -3.22664e-06 0.0097663 1.71271e-07 273.828 
-0.45 -0.73 -0.0643105 0.319573 0.00976969 0.00970566 -1.19868e-05 0.00973802 1.71499e-07 272.671 
-0.49 -0.71 -0.157795 0.527388 0.0098061 0.00974159 7.9496e-06 0.009788 1.71951e-07 273.351 
-0.43 -0.73 0.40744 0.454075 0.00975507 0.00970233 2.83923e-07 0.00973493 1.712e-07 273.061 
-0.47 -0.71 -0.136024 0.497796 0.00979896 0.00974461 3.03611e-08 0.00977202 1.71578e-07 273.497 
-0.37 -0.75 -0.368998 -0.280748 0.00973579 0.00973052 1.0583e-05 0.00972194 1.71478e-07 272.254 
-0.41 -0.73 0.430548 0.203475 0.00975723 0.00970445 -7.38468e-06 0.00973425 1.71257e-07 272.95 
-0.45 -0.71 0.457597 0.149089 0.00977556 0.00970506 8.50616e-06 0.00974364 1.71542e-07 272.761 
-0.49 -0.69 -0.040065 0.556367 0.00976309 0.00972619 -1.03095e-05 0.00975237 1.71399e-07 273.232 
-0.35 -0.75 -0.0753453 0.233323 0.00974363 0.00972157 3.38758e-06 0.00973059 1.71374e-07 272.662 
-0.39 -0.73 0.269319 -0.231874 0.00976606 0.00970117 6.72834e-06 0.00972784 1.71165e-07 272.917 
-0.43 -0.71 0.183079 0.165164 0.00977209 0.00971177 3.85169e-06 0.00974396 1.71637e-07 272.618 
-0.47 -0.69 0.505406 0.0353478 0.00977025 0.00972456 2.2127e-05 0.00975617 1.71421e-07 273.304 
-0.37 -0.73 0.335633 0.0985319 0.00977804 0.00973573 9.36347e-06 0.00974415 1.71796e-07 272.372 
-0.41 -0.71 0.408115 0.475779 0.00977983 0.00969548 -5.09913e-06 0.00974859 1.71856e-07 272.4 
-0.45 -0.69 0.171809 0.463067 0.00978928 0.00972001 1.12706e-05 0.0097644 1.71951e-07 272.691 
-0.35 -0.73 -0.148495 0.0220747 0.00976438 0.00972071 5.27238e-06 0.00975063 1.71559e-07 272.929 
-0.39 -0.71 0.255028 0.0643912 0.00977635 0.00971266 2.29778e-06 0.00974841 1.7174e-07 272.58 
-0.43 -0.69 0.0204809 0.259419 0.00979705 0.0097233 1.05047e-06 0.00976424 1.72256e-07 272.203 
-0.33 -0.73 -0.220509 -0.00713938 0.00975698 0.00971008 9.59144e-06 0.0097534 1.71881e-07 272.495 
-0.37 -0.71 0.0251223 -0.0223323 0.00975797 0.00972615 2.5165e-06 0.00975386 1.71726e-07 272.753 
-0.41 -0.69 0.0480615 -0.046784 0.00977013 0.00970587 1.68324e-06 0.00973805 1.71597e-07 272.516 
-0.35 -0.71 -0.297262 0.431491 0.00974893 0.00971419 5.36276e-06 0.00975746 1.71792e-07 272.75 
-0.39 -0.69 -0.0182478 0.323629 0.00976042 0.00969781 1.03968e-05 0.00972914 1.71526e-07 272.38 
-0.37 -0.69 -0.112504 0.220691 0.0097761 0.00972088 7.86012e-06 0.00976142 1.71762e-07 272.908 
-0.35 -0.69 0.0111504 0.597199 0.00978119 0.00972764 1.03175e-05 0.00975897 1.7158e-07 273.129 
-0.35 -0.67 -0.0100671 0.423086 0.00979008 0.00974494 1.24299e-05 0.00976352 1.71597e-07 273.229 
-0.33 -0.67 -0.0872249 0.580764 0.00977245 0.00971757 -3.06685e-06 0.00975811 1.71715e-07 272.891 
-0.33 -0.75 0.486892 0.193209 0.00974755 0.00970273 1.62236e-06 0.00973684 1.71721e-07 272.286 
-0.31 -0.73 -0.0215423 1.02268 0.00976387 0.00972509 -8.70462e-06 0.00974871 1.71589e-07 272.827 
-0.29 -0.73 0.190671 1.12084 0.00975082 0.00970601 6.64972e-07 0.00973687 1.71428e-07 272.752 
-0.33 -0.71 -0.52665 -0.0456116 0.00976335 0.00972397 -6.34701e-07 0.00974744 1.71713e-07 272.594 
-0.27 -0.73 -0.0872615 0.912914 0.00975599 0.00971715 1.48296e-05 0.00974429 1.71164e-07 273.38 
-0.31 -0.71 -0.239146 0.638307 0.00975089 0.00972254 1.3963e-05 0.00975798 1.71849e-07 272.673 
-0.29 -0.71 -0.0218577 0.93263 0.00974384 0.00969795 6.73483e-06 0.00973343 1.71417e-07 272.674 
-0.33 -0.69 -0.297996 0.170257 0.00977495 0.00971656 -7.56319e-06 0.00975601 1.7194e-07 272.474 
-0.27 -0.71 0.485125 0.932407 0.00976016 0.00971015 -1.44537e-06 0.00974024 1.7139e-07 272.907 
-0.31 -0.69 -0.608583 0.405758 0.00977955 0.00971097 9.91236e-06 0.00975416 1.71824e-07 272.606 
-0.29 -0.69 -0.436577 0.513037 0.0097808 0.00971433 8.47232e-06 0.00975694 1.71825e-07 272.684 
-0.27 -0.69 -0.222988 0.823469 0.00977161 0.00970793 4.42229e-06 0.00975172 1.71301e-07 273.37 
-0.31 -0.67 -0.255859 0.623317 0.00977004 0.00969355 -9.2383e-07 0.00973458 1.71562e-07 272.475 
-0.29 -0.67 -0.509957 0.626027 0.00977972 0.00972547 8.1905e-06 0.00975868 1.71657e-07 272.999 
-0.41 -0.83 -0.0454498 0.621487 0.00975728 0.00972317 -6.3713e-06 0.00974081 1.71648e-07 272.512 
-0.39 -0.83 -0.0681282 0.569826 0.00976004 0.00971336 1.81249e-05 0.00973625 1.7164e-07 272.398 
-0.37 -0.83 -0.255149 0.192167 0.00974133 0.00972353 1.50104e-05 0.00974392 1.71716e-07 272.491 
-0.35 -0.83 -0.425218 -0.0617598 0.00975694 0.00970744 1.64379e-05 0.00973028 1.71337e-07 272.712 
-0.33 -0.83 -0.346428 0.22068 0.00977108 0.00970599 8.09014e-06 0.00973794 1.71137e-07 273.245 
-0.31 -0.83 0.110778 -0.156435 0.00975804 0.00969286 9.07602e-06 0.00974324 1.7143e-07 272.927 
-0.29 -0.83 -0.0856496 0.103409 0.00977503 0.00974572 8.02214e-06 0.0097777 1.71625e-07 273.582 
-0.27 -0.83 -0.176162 0.368578 0.00978283 0.00973455 1.16358e-05 0.00976911 1.71594e-07 273.391 
-0.27 -0.67 -0.656241 0.556039 0.00976716 0.00970232 1.896e-05 0.00975003 1.71517e-07 272.979 
-0.25 -0.67 -0.373835 0.838921 0.00977336 0.00969544 7.31645e-06 0.00974546 1.71506e-07 272.868 
-0.25 -0.81 -0.0775149 0.248661 0.00977224 0.00971369 1.39494e-05 0.00975568 1.71396e-07 273.329 
-0.25 -0.79 -0.491834 0.102515 0.00978491 0.00972981 1.7689e-05 0.00975679 1.71288e-07 273.533 
-0.35 -0.55 -0.0173696 0.868528 0.00979163 0.00972117 1.70104e-05 0.00975651 1.7172e-07 272.838 
-0.39 -0.53 0.0204791 1.05938 0.00977112 0.009685 6.78522e-06 0.00973712 1.71279e-07 272.996 
-0.37 -0.57 -0.0602369 0.939638 0.00978069 0.00971772 1.43121e-05 0.00975382 1.71425e-07 273.231 
-0.41 -0.55 0.229888 1.0605 0.00974455 0.00971429 -1.18747e-05 0.00973886 1.71619e-07 272.504 
-0.45 -0.53 0.263416 0.496292 0.00976903 0.00969759 3.44593e-07 0.00972389 1.71274e-07 272.633 
-0.35 -0.57 -0.0788566 0.756946 0.00976395 0.00970649 2.99621e-05 0.00973459 1.71354e-07 272.806 
-0.39 -0.55 -0.14778 0.923746 0.00975336 0.00969461 1.2332e-05 0.00974488 1.71461e-07 272.924 
-0.43 -0.53 -0.213767 0.495521 0.00976692 0.00970296 6.7039e-06 0.00973472 1.71502e-07 272.574 
-0.47 -0.51 -0.226874 0.429269 0.00977013 0.0096943 4.12689e-06 0.00972697 1.71416e-07 272.493 
-0.37 -0.55 -0.0239862 1.01087 0.0097414 0.00968581 3.45558e-06 0.0097283 1.71121e-07 273.001 
-0.41 -0.53 -0.374494 0.599877 0.0097761 0.00971544 5.28818e-06 0.00973983 1.71557e-07 272.629 
-0.45 -0.51 -0.255491 0.651811 0.0097782 0.00968904 1.10423e-05 0.00973723 1.71636e-07 272.431 
-0.37 -0.53 0.090838 1.02874 0.00976833 0.00970964 4.54881e-06 0.00974749 1.71702e-07 272.614 
-0.41 -0.51 -0.441298 0.575913 0.00977838 0.00970771 6.40522e-06 0.00973764 1.71491e-07 272.674 
-0.35 -0.53 -0.203908 1.06844 0.00974657 0.00970065 -9.03875e-06 0.00972065 1.71533e-07 272.13 
-0.39 -0.51 -0.618888 0.926509 0.00977352 0.00968011 4.30404e-06 0.00972311 1.71346e-07 272.497 
-0.37 -0.51 -0.749845 1.05552 0.00979184 0.00971541 9.19963e-06 0.00975529 1.71902e-07 272.514 
-0.35 -0.51 -0.601703 0.848274 0.00978195 0.00970189 6.25483e-06 0.00974095 1.71561e-07 272.654 
-0.49 -0.65 0.0256057 0.332364 0.00978529 0.00971353 1.48821e-05 0.00975224 1.71469e-07 273.116 
-0.47 -0.65 -0.194155 0.339371 0.00978266 0.0097298 1.45231e-05 0.00976492 1.71943e-07 272.718 
-0.45 -0.65 -0.0755235 0.474559 0.0097683 0.00973687 3.91176e-07 0.00976301 1.72224e-07 272.22 
-0.49 -0.63 -0.0676517 0.376146 0.00976527 0.00970595 1.81467e-05 0.00975515 1.72026e-07 272.314 
-0.43 -0.65 -0.00804844 0.750161 0.00974293 0.00968422 3.81086e-06 0.00972724 1.71215e-07 272.822 
-0.47 -0.63 0.0592034 0.475981 0.00978138 0.0097332 7.15078e-06 0.00977436 1.72359e-07 272.323 
-0.41 -0.65 0.0968519 0.200769 0.00976785 0.00971033 4.05074e-06 0.00974006 1.71407e-07 272.875 
-0.45 -0.63 -0.327893 0.554372 0.00979874 0.00973596 2.60977e-05 0.00977438 1.72361e-07 272.321 
-0.49 -0.61 -0.0486593 0.53669 0.00977813 0.00970805 -1.39612e-05 0.00975316 1.71939e-07 272.397 
-0.39 -0.65 0.2361 0.222815 0.00976534 0.00973202 6.80771e-06 0.0097471 1.71483e-07 272.952 
-0.43 -0.63 -0.286705 0.576608 0.00978802 0.0097056 1.20006e-06 0.00975187 1.71436e-07 273.16 
-0.47 -0.61 -0.467721 0.496221 0.00978087 0.009727 3.01954e-06 0.00976978 1.72149e-07 272.528 
-0.37 -0.65 -0.30297 0.163507 0.00975495 0.00969043 -6.34181e-06 0.00972167 1.7101e-07 272.992 
-0.41 -0.63 -0.516677 0.167427 0.00977273 0.00969196 4.81469e-06 0.0097358 1.71241e-07 273.02 
-0.45 -0.61 -0.120262 0.76689 0.0097906 0.00973353 -1.3986e-06 0.00977825 1.72099e-07 272.843 
-0.49 -0.59 -0.133178 0.533819 0.00976401 0.00968707 -2.38287e-05 0.00973994 1.71433e-07 272.83 
-0.35 -0.65 -0.435175 0.329976 0.00977119 0.00974741 9.25289e-06 0.00974773 1.71529e-07 272.895 
-0.39 -0.63 -0.586684 0.469946 0.00978355 0.00973796 1.14094e-05 0.00974569 1.7148e-07 272.916 
-0.43 -0.61 -0.0124512 0.694601 0.00980542 0.00970568 1.8992e-05 0.00976981 1.71604e-07 273.394 
-0.47 -0.59 -0.107052 0.69587 0.00978729 0.00972692 -1.49718e-05 0.00977007 1.71867e-07 272.984 
-0.37 -0.63 -0.64436 0.661992 0.00976593 0.00970306 2.06749e-06 0.00973698 1.71412e-07 272.781 
-0.41 -0.61 -0.157825 0.466588 0.00980294 0.00971155 4.20915e-06 0.00975341 1.71303e-07 273.414 
-0.45 -0.59 -0.121903 0.231018 0.0097933 0.00971877 2.28245e-06 0.00977169 1.71822e-07 273.1 
-0.49 -0.57 0.11686 0.477925 0.00979145 0.00969923 -1.98351e-05 0.00974031 1.71396e-07 272.899 
-0.35 -0.63 -0.766868 0.232168 0.00975201 0.00971715 3.79489e-06 0.00972294 1.71158e-07 272.791 
-0.39 -0.61 -0.250188 0.236157 0.00979921 0.00971018 6.26153e-06 0.00974995 1.71499e-07 273.005 
-0.43 -0.59 0.371799 0.707352 0.00979484 0.00970712 4.46178e-06 0.00975323 1.71756e-07 272.689 
-0.47 -0.57 0.142091 0.74141 0.00977417 0.00971322 -1.00411e-05 0.0097406 1.71496e-07 272.749 
-0.37 -0.61 -0.201802 0.632272 0.00979762 0.00971757 2.16655e-05 0.00975878 1.71369e-07 273.46 
-0.41 -0.59 0.432692 0.597168 0.00979557 0.00971756 5.66717e-06 0.00975988 1.71463e-07 273.34 
-0.45 -0.57 0.296307 0.127166 0.00976261 0.0097052 -3.37759e-06 0.00973741 1.7164e-07 272.43 
-0.49 -0.55 -0.0528858 0.498069 0.00977331 0.00970928 -8.98521e-06 0.00974409 1.71701e-07 272.521 
-0.35 -0.61 -0.208855 0.549861 0.0097901 0.00970905 1.32223e-05 0.00974345 1.71219e-07 273.27 
-0.39 -0.59 0.144421 0.743999 0.00978446 0.00966728 1.53397e-05 0.00973407 1.71256e-07 272.947 
-0.43 -0.57 0.175446 0.501197 0.00976591 0.00969679 2.0741e-07 0.0097403 1.71191e-07 273.226 
-0.47 -0.55 0.249109 0.657515 0.00976875 0.00968684 -1.21854e-05 0.00972108 1.71598e-07 272.04 
-0.33 -0.61 -0.624484 0.558601 0.00978482 0.00969532 2.41735e-05 0.00974732 1.71356e-07 273.159 
-0.37 -0.59 -0.303549 0.391781 0.00978835 0.00974733 2.55842e-05 0.00976595 1.71637e-07 273.234 
-0.41 -0.57 0.0203228 0.862591 0.00977112 0.00971729 2.57313e-05 0.00974486 1.71424e-07 272.982 
-0.45 -0.55 -0.0274374 0.0483293 0.0097657 0.00970257 -8.90647e-07 0.00971809 1.71473e-07 272.155 
-0.49 -0.53 0.26875 0.481544 0.00978027 0.00970795 9.25605e-06 0.00974247 1.71547e-07 272.72 
-0.35 -0.59 -0.597434 0.85503 0.00978808 0.00969547 1.46807e-05 0.00974011 1.7145e-07 272.807 
-0.39 -0.57 -0.102773 0.939877 0.00976668 0.0096821 -6.94814e-09 0.00973161 1.71205e-07 272.96 
-0.43 -0.55 0.0186635 0.361112 0.0097581 0.00970054 1.79702e-05 0.00974297 1.71589e-07 272.667 
-0.47 -0.53 0.365897 0.312793 0.00976932 0.00968765 8.29036e-06 0.00972173 1.71438e-07 272.311 
-0.29 -0.57 -0.367149 0.450234 0.00976571 0.00969152 2.47143e-05 0.00973452 1.71334e-07 272.837 
-0.33 -0.55 -0.508629 0.923354 0.00980265 0.00972767 7.76035e-06 0.00975547 1.71624e-07 272.961 
-0.29 -0.61 -0.467138 0.649127 0.00976834 0.00970304 -8.16258e-07 0.00973519 1.71519e-07 272.561 
-0.33 -0.59 -0.434576 0.960122 0.00979033 0.00970745 1.91786e-05 0.00975774 1.71618e-07 273.034 
-0.27 -0.61 -0.661166 0.708183 0.00978553 0.00969212 1.69507e-05 0.00974748 1.71709e-07 272.602 
-0.31 -0.59 -0.782057 0.798225 0.0097953 0.00974587 1.39439e-05 0.00976791 1.71832e-07 272.979 
-0.29 -0.59 -0.584855 0.212953 0.00979476 0.00969134 2.10589e-05 0.00973965 1.71299e-07 273.035 
-0.33 -0.57 -0.24926 0.752666 0.00976087 0.00971881 1.13168e-06 0.00973392 1.71381e-07 272.744 
-0.27 -0.59 -0.390347 0.902791 0.00977548 0.00968835 2.51848e-05 0.00973182 1.71106e-07 273.124 
-0.31 -0.57 -0.182913 0.723024 0.00977299 0.00972203 1.33247e-05 0.00975206 1.71703e-07 272.741 
-0.27 -0.57 -0.44093 0.609714 0.00976998 0.00969301 3.33484e-05 0.0097474 1.71482e-07 272.961 
-0.31 -0.55 -0.0955422 0.820772 0.00978498 0.00970016 2.15307e-05 0.00974549 1.71324e-07 273.159 
-0.29 -0.55 -0.357189 0.584104 0.00977145 0.00969514 3.50949e-05 0.00973164 1.71079e-07 273.162 
-0.33 -0.53 -0.0930631 1.22287 0.00975577 0.00971642 1.22003e-05 0.00972152 1.71031e-07 272.955 
-0.27 -0.55 -0.407325 0.451487 0.00976052 0.00968127 2.27319e-05 0.00972371 1.71467e-07 272.322 
-0.31 -0.53 -0.341112 0.635441 0.00976104 0.00969395 2.46693e-05 0.00973294 1.71102e-07 273.161 
-0.29 -0.53 -0.269654 0.768374 0.00979349 0.0096895 3.22361e-05 0.00974745 1.71449e-07 273.015 
-0.33 -0.51 -0.369941 0.914253 0.00977198 0.00970049 1.22183e-05 0.00973866 1.714e-07 272.846 
-0.27 -0.53 -0.35592 0.565697 0.00978612 0.00968543 3.05799e-05 0.00973793 1.71231e-07 273.096 
-0.31 -0.51 -0.125659 0.832311 0.00976696 0.00968767 7.92347e-06 0.00972219 1.71154e-07 272.776 
-0.29 -0.51 -0.114625 0.615352 0.00976069 0.00967607 2.08128e-05 0.0097238 1.71038e-07 273.007 
-0.27 -0.51 -0.159979 1.07049 0.00978601 0.00969029 3.55151e-05 0.00974488 1.71199e-07 273.341 
-0.33 -0.65 -0.596844 0.558503 0.00977774 0.00971467 1.54487e-05 0.00975287 1.71291e-07 273.419 
-0.31 -0.65 -0.489077 0.834782 0.00977667 0.00970691 1.19427e-05 0.00975356 1.71593e-07 272.956 
-0.29 -0.65 -0.537107 0.733171 0.00975314 0.00970019 1.89091e-05 0.00973669 1.71418e-07 272.762 
-0.33 -0.63 -0.440924 0.696436 0.00974991 0.00972825 2.25549e-05 0.00973622 1.71255e-07 273.009 
-0.27 -0.65 -0.776236 0.586052 0.00977306 0.00971283 1.39157e-05 0.00975355 1.71705e-07 272.779 
-0.31 -0.63 -0.616848 0.6702 0.00972717 0.00968721 1.23846e-05 0.00971816 1.70948e-07 272.993 
-0.25 -0.65 -0.683475 0.346572 0.00976557 0.00969879 1.60504e-05 0.00973893 1.717e-07 272.378 
-0.29 -0.63 -0.711472 0.543996 0.00976465 0.00972246 1.91962e-06 0.00973322 1.7145e-07 272.615 
-0.27 -0.63 -0.545043 0.63 0.0097423 0.00970177 1.3534e-05 0.00973363 1.71625e-07 272.349 
-0.31 -0.61 -0.72456 0.748555 0.00979281 0.00973512 2.01527e-05 0.00976222 1.71591e-07 273.202 
-0.49 -0.67 0.248023 0.450174 0.00977722 0.00971044 2.37558e-06 0.00974845 1.71325e-07 273.241 
-0.47 -0.67 0.050309 -0.303234 0.00976901 0.00972836 2.48868e-07 0.00975444 1.71643e-07 272.902 
-0.45 -0.67 0.0621692 0.971909 0.00976891 0.00972829 3.30772e-06 0.0097592 1.71743e-07 272.876 