ITEM: TIMESTEP
1058500
ITEM: NUMBER OF CELLS
5000
ITEM: BOX BOUNDS ss ss pp
-0.5 0.5
-1 1
-0.5 0.5
ITEM: CELLS xc yc f_U[*] f_V[*] f_Tau[1] f_Tau[2] f_Tau[3] f_Press[*] f_Mrho[*] f_Ttra[*] 
-0.49 -0.99 -0.0389787 0.0924122 0.00976234 0.00973459 8.40336e-06 0.00974878 1.7147e-07 273.019 
-0.47 -0.99 -0.121849 0.0225862 0.00974892 0.00971877 6.15887e-06 0.0097377 1.71408e-07 272.806 
-0.45 -0.99 -0.251144 0.00875724 0.00975234 0.00972997 5.24494e-06 0.00974486 1.71424e-07 272.982 
-0.49 -0.97 -0.0513252 0.150347 0.00974591 0.00972256 1.05184e-05 0.00973384 1.71309e-07 272.856 
-0.43 -0.99 -0.280471 -0.0422565 0.00974714 0.00972096 3.06714e-06 0.00973786 1.7132e-07 272.951 
-0.47 -0.97 -0.0944222 0.0830193 0.00974967 0.00972318 1.21859e-05 0.00974003 1.71376e-07 272.923 
-0.41 -0.99 -0.0923052 -0.080779 0.00974312 0.00972506 7.15454e-07 0.00973781 1.71311e-07 272.965 
-0.45 -0.97 -0.0316875 0.0625421 0.00974683 0.00973454 4.36838e-06 0.00974589 1.71451e-07 272.968 
-0.49 -0.95 0.0600276 0.0886075 0.00973802 0.00971439 2.04995e-06 0.0097329 1.71278e-07 272.879 
-0.39 -0.99 -0.152681 0.089089 0.00974559 0.00972718 1.68664e-06 0.00973739 1.71169e-07 273.179 
-0.43 -0.97 0.0115827 0.0471826 0.00974868 0.00972199 1.68189e-06 0.00973992 1.71323e-07 273.004 
-0.47 -0.95 0.105318 0.0914385 0.00975301 0.00972693 -6.08123e-07 0.00974112 1.71387e-07 272.936 
-0.37 -0.99 -0.188855 -0.0095194 0.009743 0.00972829 8.1601e-06 0.00973887 1.71315e-07 272.988 
-0.41 -0.97 -0.175749 -0.181879 0.00974537 0.00972527 4.02764e-06 0.00973802 1.71368e-07 272.879 
-0.45 -0.95 0.1981 -0.0347885 0.00976037 0.00973763 5.85212e-06 0.00975581 1.71604e-07 273.002 
-0.49 -0.93 -0.0085495 0.0423416 0.00976961 0.00972271 -1.00471e-06 0.00975049 1.71536e-07 272.961 
-0.35 -0.99 -0.140155 -0.0914225 0.00973691 0.00971108 4.48941e-06 0.00972136 1.71101e-07 272.838 
-0.39 -0.97 -0.0418254 0.0452901 0.00974184 0.00972433 6.3895e-06 0.00974025 1.71426e-07 272.85 
-0.43 -0.95 0.14104 0.0572284 0.00975931 0.00971988 7.15354e-06 0.00974673 1.71472e-07 272.959 
-0.47 -0.93 0.0113824 0.0349298 0.00975989 0.00972255 6.52611e-07 0.00974542 1.71531e-07 272.828 
-0.33 -0.99 -0.0847711 0.00827729 0.00973447 0.00972853 6.19744e-06 0.00972892 1.71243e-07 272.824 
-0.37 -0.97 -0.00108937 -0.0512852 0.00973965 0.00972789 4.07986e-06 0.00974089 1.71333e-07 273.016 
-0.41 -0.95 0.0323149 0.0406926 0.00975701 0.00972671 3.13864e-06 0.00974318 1.71532e-07 272.764 
-0.45 -0.93 -0.0878829 0.0639986 0.00975579 0.00973087 5.93526e-06 0.00974508 1.71534e-07 272.814 
-0.49 -0.91 -0.0202547 0.147728 0.00977391 0.00972739 1.15076e-05 0.00975339 1.71481e-07 273.13 
-0.35 -0.97 -0.0405207 -0.0441565 0.00973745 0.009713 1.02287e-05 0.00972938 1.71167e-07 272.958 
-0.39 -0.95 -0.15684 -0.0416293 0.00975364 0.00972374 6.97442e-06 0.00973891 1.71458e-07 272.761 
-0.43 -0.93 -0.0776749 0.097152 0.00975449 0.00972455 2.36947e-06 0.00973755 1.71397e-07 272.82 
-0.47 -0.91 -0.220197 0.0372969 0.00976493 0.00972398 6.47306e-06 0.00974503 1.71523e-07 272.83 
-0.33 -0.97 -0.124601 -0.0120935 0.00974275 0.00972514 6.07757e-06 0.00973902 1.71451e-07 272.776 
-0.37 -0.95 -0.136842 -0.0376265 0.00975465 0.00972161 1.16026e-05 0.00974224 1.71313e-07 273.086 
-0.41 -0.93 -0.0732156 0.0331494 0.00975346 0.0097219 1.11749e-05 0.00973241 1.71276e-07 272.869 
-0.45 -0.91 -0.069285 0.028204 0.00976474 0.0097244 5.93489e-06 0.00974991 1.71525e-07 272.963 
-0.49 -0.89 -0.00113079 0.127066 0.00977114 0.00972677 1.15151e-05 0.00975034 1.71458e-07 273.082 
-0.35 -0.95 -0.067141 -0.0164101 0.0097554 0.00971902 3.7386e-06 0.00974027 1.71357e-07 272.961 
-0.39 -0.93 0.0131328 -0.0443867 0.00975091 0.0097238 7.58157e-06 0.0097402 1.71565e-07 272.627 
-0.43 -0.91 -0.157187 0.0613031 0.00976097 0.00973064 9.19473e-06 0.0097434 1.71344e-07 273.069 
-0.47 -0.89 0.0985633 0.113754 0.00977063 0.00973094 9.00794e-06 0.00974948 1.71604e-07 272.826 
-0.37 -0.93 -0.00949883 -0.00349677 0.00975468 0.00972296 2.4109e-06 0.00974486 1.71412e-07 273.001 
-0.41 -0.91 -0.0603602 -0.0072991 0.00976718 0.00971378 3.04639e-06 0.00973898 1.71332e-07 272.963 
-0.45 -0.89 -0.0804368 0.145691 0.00976277 0.00971896 5.04663e-06 0.00974464 1.71445e-07 272.942 
-0.49 -0.87 -0.0338881 0.158264 0.00975122 0.00971524 -3.01116e-07 0.00973219 1.71264e-07 272.881 
-0.35 -0.93 -0.256602 0.0239174 0.00975786 0.00972019 8.70347e-06 0.00973962 1.71449e-07 272.796 
-0.39 -0.91 -0.0927573 -0.0519644 0.00977192 0.00972902 1.22043e-05 0.00975375 1.71692e-07 272.804 
-0.43 -0.89 -0.145776 0.0153607 0.00976783 0.00973675 5.71852e-06 0.00975272 1.71484e-07 273.107 
-0.47 -0.87 0.081577 0.109046 0.00975999 0.00973074 1.05019e-05 0.00974241 1.71407e-07 272.94 
-0.37 -0.91 -0.228161 0.200903 0.00975772 0.00972238 1.06081e-05 0.0097401 1.71614e-07 272.547 
-0.41 -0.89 -0.130044 -0.053174 0.0097602 0.00971182 4.56594e-06 0.00974106 1.71492e-07 272.767 
-0.45 -0.87 -0.101054 0.203336 0.00976584 0.00972049 9.90856e-06 0.00975013 1.7151e-07 272.993 
-0.49 -0.85 -0.0601211 0.14089 0.00975031 0.00971386 -1.02664e-08 0.00972991 1.71193e-07 272.931 
-0.35 -0.91 -0.142479 0.105064 0.0097498 0.00972136 3.42503e-06 0.0097353 1.71401e-07 272.751 
-0.39 -0.89 -0.0781296 0.134673 0.00975416 0.00971676 1.08725e-05 0.00974303 1.71474e-07 272.852 
-0.43 -0.87 -0.103708 0.0995365 0.00975379 0.0097362 1.10996e-05 0.00974846 1.71543e-07 272.894 
-0.47 -0.85 -0.141191 0.183797 0.00975234 0.00972152 2.10588e-06 0.0097423 1.71333e-07 273.056 
-0.33 -0.91 -0.200833 -0.0528117 0.00975476 0.00971929 1.07685e-05 0.00973998 1.71405e-07 272.875 
-0.37 -0.89 -0.161772 0.0971867 0.0097648 0.00973333 1.56877e-05 0.00975616 1.71692e-07 272.873 
-0.41 -0.87 -0.209111 -0.0498399 0.00975814 0.00971431 7.70295e-06 0.00973949 1.71535e-07 272.656 
-0.45 -0.85 -0.10431 0.222659 0.00975821 0.00971835 7.64575e-06 0.00974287 1.71335e-07 273.068 
-0.35 -0.89 -0.218382 0.132413 0.00976639 0.00971917 1.12026e-05 0.00974016 1.71461e-07 272.791 
-0.39 -0.87 -0.293292 0.143503 0.00976666 0.00971472 5.81608e-06 0.00974493 1.7157e-07 272.751 
-0.43 -0.85 -0.199117 0.150643 0.00977083 0.0097395 7.04742e-06 0.0097503 1.71645e-07 272.783 
-0.37 -0.87 -0.347011 0.204288 0.00976956 0.00972897 8.2558e-06 0.00975335 1.71651e-07 272.859 
-0.41 -0.85 -0.182895 0.0614282 0.00976893 0.00971616 9.65668e-06 0.00974514 1.71591e-07 272.725 
-0.35 -0.87 -0.313364 0.08546 0.00976766 0.0097212 1.16786e-05 0.00974259 1.71455e-07 272.87 
-0.39 -0.85 -0.267478 0.30646 0.00976562 0.00971624 4.0644e-06 0.00974679 1.71565e-07 272.812 
-0.33 -0.87 -0.34814 0.123243 0.00976381 0.00972222 1.35346e-05 0.00974495 1.71534e-07 272.809 
-0.37 -0.85 -0.290112 0.0380804 0.00976494 0.00972217 1.0008e-05 0.00974643 1.71487e-07 272.926 
-0.35 -0.85 -0.240893 0.130314 0.00976544 0.00971934 1.27957e-05 0.00974287 1.71383e-07 272.991 
-0.33 -0.85 -0.374317 0.335343 0.00976699 0.00972471 1.3339e-05 0.00974387 1.71424e-07 272.954 
-0.31 -0.99 -0.0192737 -0.0382932 0.00972962 0.00971471 1.35572e-05 0.00972015 1.71187e-07 272.667 
-0.29 -0.99 -0.104042 0.0413989 0.00972896 0.00971701 8.37194e-06 0.00972829 1.71167e-07 272.927 
-0.27 -0.99 -0.142265 0.00791099 0.00974249 0.00972835 6.72512e-06 0.00973473 1.71166e-07 273.109 
-0.31 -0.97 -0.371397 0.00242787 0.00974884 0.00972063 6.76454e-06 0.00973679 1.71364e-07 272.852 
-0.29 -0.97 -0.42671 0.190622 0.00975555 0.00972004 7.61803e-06 0.00974718 1.71483e-07 272.953 
-0.33 -0.95 -0.0700351 0.110395 0.00975234 0.00972293 9.55675e-06 0.0097392 1.71337e-07 272.963 
-0.27 -0.97 -0.304015 -0.112925 0.00974285 0.00972265 9.5504e-06 0.00973756 1.71349e-07 272.897 
-0.31 -0.95 -0.140553 0.201925 0.00974988 0.00972108 7.70537e-06 0.00973378 1.71307e-07 272.858 
-0.29 -0.95 -0.109723 0.0945946 0.00974388 0.00971175 9.29074e-06 0.00972737 1.71258e-07 272.756 
-0.33 -0.93 -0.260454 0.156972 0.00975887 0.00971944 3.51381e-06 0.00973736 1.71344e-07 272.899 
-0.27 -0.95 -0.325815 -0.0954072 0.00974961 0.0097278 6.62946e-06 0.00973951 1.71354e-07 272.943 
-0.31 -0.93 -0.0763073 0.061609 0.00975999 0.00971985 8.82658e-06 0.00974136 1.71557e-07 272.673 
-0.29 -0.93 -0.166278 0.226409 0.00976305 0.00971454 1.00462e-05 0.00974139 1.71474e-07 272.806 
-0.27 -0.93 -0.189408 0.108852 0.00976214 0.00972362 8.42584e-06 0.00974513 1.71517e-07 272.842 
-0.31 -0.91 -0.219487 0.158689 0.00975553 0.00971863 1.01934e-05 0.00973954 1.71447e-07 272.796 
-0.29 -0.91 -0.262405 0.183917 0.00975356 0.00971475 2.28084e-06 0.00973256 1.71394e-07 272.685 
-0.33 -0.89 -0.2469 0.0144554 0.00975778 0.00972134 6.55792e-06 0.0097419 1.71421e-07 272.904 
-0.27 -0.91 -0.119888 0.134405 0.00975697 0.0097223 6.06304e-06 0.00973752 1.71487e-07 272.676 
-0.31 -0.89 -0.215936 0.20372 0.00975996 0.00971974 3.19565e-06 0.00974483 1.71484e-07 272.885 
-0.29 -0.89 -0.178358 0.059323 0.00975718 0.00971404 9.58262e-06 0.00973994 1.71323e-07 273.005 
-0.27 -0.89 -0.296866 0.243096 0.00975088 0.00971945 1.03932e-05 0.00974157 1.71457e-07 272.838 
-0.31 -0.87 -0.484266 0.189483 0.00975838 0.0097211 8.47824e-06 0.00974062 1.71462e-07 272.803 
-0.29 -0.87 -0.442962 0.113924 0.00975434 0.0097085 9.13207e-06 0.00973688 1.71303e-07 272.952 
-0.27 -0.87 -0.40026 0.241382 0.0097566 0.00972008 1.50779e-05 0.00974266 1.71416e-07 272.934 
-0.31 -0.85 -0.381821 0.0333244 0.00976361 0.00972378 1.66407e-05 0.00974773 1.71491e-07 272.956 
-0.29 -0.85 -0.26976 0.173221 0.00975505 0.00970766 1.30655e-05 0.00973964 1.71399e-07 272.876 
-0.27 -0.85 -0.316898 0.17815 0.00975281 0.00971753 1.1689e-05 0.0097382 1.71177e-07 273.188 
-0.25 -0.99 -0.231746 0.0935491 0.00974815 0.00973792 1.1451e-05 0.00974594 1.71401e-07 273.049 
-0.25 -0.97 -0.178205 0.0987549 0.00974206 0.00973064 7.74781e-06 0.00974023 1.7143e-07 272.843 
-0.25 -0.95 -0.401229 0.072188 0.00974887 0.00973131 8.71685e-06 0.00974291 1.71391e-07 272.981 
-0.25 -0.93 -0.235321 0.071745 0.00975962 0.00973313 1.14848e-05 0.00974428 1.71549e-07 272.767 
-0.25 -0.91 -0.263892 0.102773 0.00975803 0.00972965 1.01907e-05 0.00974566 1.71614e-07 272.702 
-0.25 -0.89 -0.331457 0.228134 0.00974789 0.0097222 1.46058e-05 0.00973544 1.7137e-07 272.804 
-0.25 -0.87 -0.422544 0.248257 0.00975162 0.00971777 1.61507e-05 0.00973772 1.71316e-07 272.954 
-0.25 -0.85 -0.237566 0.292239 0.00976175 0.00972057 1.09797e-05 0.00974557 1.71403e-07 273.035 
-0.25 -0.83 -0.406905 0.223464 0.00976357 0.0097178 7.65814e-06 0.00974524 1.71404e-07 273.025 
-0.33 -0.81 -0.10669 0.23035 0.00976217 0.00971254 1.25942e-05 0.00974035 1.71428e-07 272.85 
-0.31 -0.81 -0.228045 0.186911 0.00977715 0.00972453 1.37501e-05 0.00975326 1.71495e-07 273.104 
-0.29 -0.81 -0.218192 0.15827 0.00978057 0.00972356 9.51613e-06 0.00975542 1.71554e-07 273.071 
-0.27 -0.81 -0.298888 0.26747 0.00977778 0.00972015 1.29465e-05 0.00975508 1.7155e-07 273.067 
-0.31 -0.79 -0.236658 0.151381 0.00976018 0.00972151 6.46764e-06 0.00974147 1.71468e-07 272.817 
-0.29 -0.79 -0.275552 0.375716 0.00976152 0.0097208 1.22075e-05 0.00974041 1.71508e-07 272.724 
-0.33 -0.77 -0.308752 0.321945 0.00977063 0.00972428 1.69494e-05 0.00974689 1.71525e-07 272.878 
-0.27 -0.79 -0.369078 0.237371 0.00976415 0.00971425 1.13898e-05 0.00974136 1.71441e-07 272.858 
-0.31 -0.77 -0.298307 0.130793 0.00976579 0.00971702 1.15886e-05 0.00974267 1.7151e-07 272.784 
-0.29 -0.77 -0.299204 0.340784 0.00975882 0.00971872 1.01666e-05 0.00974025 1.71542e-07 272.665 
-0.27 -0.77 -0.315937 0.223359 0.00975769 0.00971221 8.35664e-06 0.00973836 1.71395e-07 272.847 
-0.31 -0.75 -0.197932 0.370921 0.00976757 0.00972042 1.29544e-05 0.00974948 1.71631e-07 272.782 
-0.29 -0.75 -0.482296 0.322014 0.00976784 0.00972167 1.35459e-05 0.00975005 1.71613e-07 272.827 
-0.27 -0.75 -0.52946 0.473178 0.00976675 0.00970915 1.85198e-05 0.00973674 1.71359e-07 272.858 
-0.49 -0.83 0.0169622 0.239681 0.00975476 0.00971588 -6.90894e-07 0.00973569 1.71315e-07 272.898 
-0.47 -0.83 -0.11302 0.215695 0.00975617 0.00971772 1.95374e-06 0.00973846 1.7156e-07 272.586 
-0.45 -0.83 -0.137699 0.255778 0.00975604 0.00972236 -9.51025e-07 0.00974206 1.71416e-07 272.916 
-0.49 -0.81 -0.0555494 0.289172 0.00976621 0.00972067 1.00594e-06 0.00974315 1.71487e-07 272.834 
-0.43 -0.83 -0.133337 0.235573 0.00975534 0.00972233 4.91475e-06 0.00974006 1.71416e-07 272.86 
-0.47 -0.81 -0.131222 0.267801 0.00976369 0.00971662 -4.1262e-07 0.00974439 1.71528e-07 272.803 
-0.45 -0.81 -0.0763237 0.247732 0.00976733 0.00972392 2.34014e-06 0.00974544 1.71498e-07 272.881 
-0.49 -0.79 -0.0328932 0.47098 0.00975988 0.00972101 3.28346e-06 0.00973906 1.71396e-07 272.865 
-0.43 -0.81 -0.0325335 0.269572 0.00976216 0.00971297 4.90336e-06 0.00974016 1.71579e-07 272.604 
-0.47 -0.79 -0.0209916 0.158981 0.00975808 0.00971903 -5.04521e-06 0.00974048 1.71416e-07 272.872 
-0.41 -0.81 -0.203868 0.169615 0.00976453 0.00972662 1.0438e-05 0.00975094 1.71578e-07 272.908 
-0.45 -0.79 -0.0626813 0.258669 0.00975806 0.00971674 3.25182e-06 0.00973582 1.71428e-07 272.722 
-0.49 -0.77 0.0691263 0.368136 0.00975928 0.00972331 5.92147e-06 0.00974358 1.71385e-07 273.009 
-0.39 -0.81 -0.273114 0.221614 0.00975927 0.00971493 1.36581e-05 0.00974351 1.71564e-07 272.722 
-0.43 -0.79 -0.308422 0.357223 0.00976587 0.00971202 4.44241e-06 0.00973751 1.71515e-07 272.631 
-0.47 -0.77 0.0350149 0.302138 0.00975802 0.00972593 3.80348e-06 0.00974391 1.71442e-07 272.926 
-0.37 -0.81 -0.0563347 0.105521 0.00975762 0.00971942 1.08268e-05 0.0097393 1.71544e-07 272.636 
-0.41 -0.79 -0.265393 0.279889 0.00976766 0.00972469 8.65447e-06 0.00974976 1.71663e-07 272.739 
-0.45 -0.77 -0.22109 0.453097 0.00975687 0.00971241 -4.42473e-06 0.00973431 1.71422e-07 272.69 
-0.35 -0.81 -0.0209645 0.19842 0.00975252 0.00971447 6.28627e-06 0.00973767 1.71428e-07 272.775 
-0.39 -0.79 -0.190016 0.134222 0.00976477 0.00971186 8.83577e-06 0.00973934 1.71544e-07 272.637 
-0.43 -0.77 -0.199984 0.40985 0.00975675 0.00971068 2.09709e-06 0.00973387 1.71425e-07 272.673 
-0.37 -0.79 -0.256634 0.104513 0.00977376 0.00971918 1.20279e-05 0.00974373 1.71557e-07 272.739 
-0.41 -0.77 -0.193586 0.144299 0.0097568 0.00971266 9.23885e-06 0.00973447 1.71357e-07 272.798 
-0.35 -0.79 -0.231693 0.163554 0.00977418 0.00971766 1.34953e-05 0.00974706 1.71586e-07 272.787 
-0.39 -0.77 -0.0996919 0.136849 0.00975863 0.00972135 1.16171e-05 0.00974523 1.7159e-07 272.728 
-0.43 -0.75 0.0651712 0.2121 0.00976699 0.00970734 -9.375e-07 0.00974088 1.7146e-07 272.814 
-0.33 -0.79 -0.255739 0.29192 0.00976379 0.00971528 5.95098e-06 0.00973987 1.71432e-07 272.83 
-0.37 -0.77 -0.116732 0.213491 0.00975991 0.00971601 3.03546e-06 0.00973858 1.71459e-07 272.75 
-0.41 -0.75 -0.0264945 0.340115 0.00976982 0.00970524 7.01818e-06 0.00974418 1.71589e-07 272.701 
-0.35 -0.77 -0.343601 0.279826 0.00976903 0.00971454 8.28229e-06 0.00974136 1.71439e-07 272.86 
-0.39 -0.75 -0.216032 0.188923 0.00977421 0.00972463 7.7993e-06 0.00975127 1.71703e-07 272.717 
-0.49 -0.75 -0.0477992 0.285964 0.0097678 0.00972774 5.5859e-06 0.00975178 1.71503e-07 273.05 
-0.47 -0.75 -0.0945451 0.499409 0.00976565 0.00973039 5.12054e-06 0.00974538 1.71425e-07 272.996 
-0.45 -0.75 -0.104536 0.516077 0.00976498 0.00971198 3.88353e-07 0.00973478 1.71456e-07 272.65 
-0.49 -0.73 -0.10895 0.471968 0.009769 0.00972073 6.58934e-06 0.00974632 1.71442e-07 272.995 
-0.47 -0.73 -0.233774 0.464026 0.00977429 0.00973961 2.55151e-06 0.00975438 1.71458e-07 273.195 
-0.45 -0.73 -0.138728 0.266087 0.00977426 0.00971514 -3.7337e-06 0.00974173 1.71414e-07 272.911 
-0.49 -0.71 -0.0369381 0.628056 0.00977499 0.00972054 -1.25531e-06 0.00974763 1.71559e-07 272.845 
-0.43 -0.73 -0.0850102 0.368714 0.00976472 0.00970229 4.35971e-06 0.00973632 1.7139e-07 272.797 
-0.47 -0.71 -0.0851216 0.488686 0.00977577 0.00973691 2.11598e-06 0.00975611 1.71505e-07 273.169 
-0.37 -0.75 -0.223358 0.171371 0.00976792 0.00971775 1.00702e-05 0.00974035 1.71541e-07 272.67 
-0.41 -0.73 -0.173408 0.34926 0.00976581 0.00970091 4.75608e-07 0.00973713 1.71548e-07 272.568 
-0.45 -0.71 -0.0214541 0.210556 0.00976571 0.00971384 8.99673e-06 0.00973969 1.71298e-07 273.038 
-0.49 -0.69 0.0545555 0.59955 0.009767 0.00971616 -6.84875e-06 0.00974433 1.71455e-07 272.919 
-0.35 -0.75 -0.0569764 0.266199 0.00975992 0.00970983 8.42785e-06 0.00973513 1.71386e-07 272.77 
-0.39 -0.73 -0.183129 0.22816 0.00977122 0.00971568 1.11107e-05 0.0097433 1.71508e-07 272.805 
-0.43 -0.71 -0.203287 0.368995 0.00976548 0.00970636 3.79322e-06 0.00973899 1.71544e-07 272.627 
-0.47 -0.69 0.152962 0.438357 0.00976899 0.00972597 5.20225e-06 0.00974936 1.71419e-07 273.116 
-0.37 -0.73 -0.290821 0.206314 0.00977324 0.00972319 1.09618e-05 0.0097466 1.71563e-07 272.809 
-0.41 -0.71 -0.118371 0.443574 0.00976836 0.00969553 4.74134e-07 0.00973504 1.71642e-07 272.361 
-0.45 -0.69 -0.0753467 0.396493 0.00977806 0.00971355 8.79992e-06 0.00974868 1.71515e-07 272.944 
-0.35 -0.73 -0.523157 0.376342 0.00977226 0.00971135 9.49517e-06 0.00974556 1.71579e-07 272.755 
-0.39 -0.71 -0.187591 0.243344 0.00976833 0.00971669 1.31421e-06 0.00974046 1.71524e-07 272.699 
-0.43 -0.69 -0.12016 0.417105 0.00977874 0.00971591 7.74271e-06 0.00975107 1.71733e-07 272.664 
-0.33 -0.73 -0.347061 0.172211 0.00977185 0.00970787 1.38178e-05 0.00974076 1.71584e-07 272.613 
-0.37 -0.71 -0.124728 0.241951 0.00977075 0.00971677 1.33355e-05 0.00974639 1.71579e-07 272.778 
-0.41 -0.69 -0.118196 0.339532 0.00976993 0.00970152 1.11198e-06 0.00973619 1.71584e-07 272.485 
-0.35 -0.71 -0.240129 0.489156 0.00977068 0.00970789 9.58071e-06 0.00974651 1.71572e-07 272.793 
-0.39 -0.69 -0.100884 0.379059 0.00976291 0.00970436 5.08379e-06 0.00973487 1.71407e-07 272.729 
-0.37 -0.69 -0.311213 0.330042 0.00976293 0.00971391 1.04337e-05 0.00974252 1.71534e-07 272.742 
-0.35 -0.69 -0.274179 0.528582 0.00976274 0.00970509 1.19441e-05 0.00973473 1.7138e-07 272.769 
-0.35 -0.67 -0.241735 0.448864 0.00977188 0.00971514 1.09963e-05 0.00974513 1.71499e-07 272.871 
-0.33 -0.67 -0.365579 0.590501 0.00975695 0.00970303 8.03734e-06 0.00973881 1.71472e-07 272.737 
-0.33 -0.75 -0.111567 0.268938 0.00976077 0.00971613 1.05874e-05 0.00973803 1.71428e-07 272.785 
-0.31 -0.73 -0.422759 0.486245 0.00976836 0.00972434 1.14065e-05 0.00975025 1.71591e-07 272.867 
-0.29 -0.73 -0.357448 0.469406 0.00977211 0.00971431 1.39458e-05 0.0097505 1.71529e-07 272.973 
-0.33 -0.71 -0.52335 0.165579 0.0097679 0.00971152 1.39096e-05 0.00974172 1.71503e-07 272.769 
-0.27 -0.73 -0.477377 0.568163 0.0097666 0.00971707 1.89701e-05 0.00974651 1.71461e-07 272.97 
-0.31 -0.71 -0.399821 0.471794 0.00976585 0.00972407 1.52811e-05 0.00974824 1.71556e-07 272.867 
-0.29 -0.71 -0.480357 0.463251 0.00975866 0.00970734 1.71822e-05 0.00973937 1.71309e-07 273.011 
-0.33 -0.69 -0.276428 0.323104 0.00977449 0.00971186 6.74772e-06 0.00974635 1.71645e-07 272.672 
-0.27 -0.71 -0.385346 0.467547 0.00976542 0.00971389 1.26024e-05 0.00974149 1.71337e-07 273.027 
-0.31 -0.69 -0.557969 0.473999 0.00977881 0.00971795 1.63825e-05 0.00975101 1.71584e-07 272.9 
-0.29 -0.69 -0.540989 0.560913 0.00977763 0.00971338 1.8696e-05 0.00975045 1.71513e-07 272.998 
-0.27 -0.69 -0.577265 0.372529 0.00977416 0.00971779 1.31641e-05 0.00974601 1.71374e-07 273.095 
-0.31 -0.67 -0.416585 0.574129 0.00975555 0.00971295 1.3049e-05 0.00973835 1.71444e-07 272.768 
-0.29 -0.67 -0.437521 0.471279 0.00976324 0.00971389 1.64232e-05 0.00974236 1.71317e-07 273.082 
-0.41 -0.83 -0.192169 0.0694203 0.00975769 0.00972436 1.01139e-05 0.009742 1.71553e-07 272.696 
-0.39 -0.83 -0.169027 0.283909 0.00975596 0.00971691 5.97588e-06 0.00973521 1.71452e-07 272.668 
-0.37 -0.83 -0.215499 0.218556 0.00975274 0.00971866 6.3278e-06 0.00973657 1.71303e-07 272.943 
-0.35 -0.83 -0.333979 0.0780719 0.00975833 0.00971557 1.58993e-05 0.00973682 1.71386e-07 272.817 
-0.33 -0.83 -0.223809 0.32333 0.00975819 0.00972484 1.45783e-05 0.00973954 1.71284e-07 273.056 
-0.31 -0.83 -0.135219 -0.0899468 0.00975267 0.00971482 1.93602e-05 0.00974146 1.71457e-07 272.835 
-0.29 -0.83 -0.247496 0.206178 0.00975935 0.00971947 1.72435e-05 0.00974596 1.7135e-07 273.13 
-0.27 -0.83 -0.303243 0.28513 0.00976123 0.00971813 7.52779e-06 0.00974653 1.71404e-07 273.061 
-0.27 -0.67 -0.474194 0.494049 0.0097619 0.00971978 1.80679e-05 0.00974309 1.71381e-07 273.001 
-0.25 -0.67 -0.551189 0.412379 0.00976928 0.00971763 1.16618e-05 0.00975021 1.71395e-07 273.179 
-0.25 -0.81 -0.26628 0.347395 0.00976422 0.0097159 7.02304e-06 0.00974444 1.71413e-07 272.988 
-0.25 -0.79 -0.272141 0.21319 0.00976973 0.00972319 2.0018e-05 0.00974478 1.71426e-07 272.977 
-0.35 -0.55 -0.221229 0.786335 0.00978354 0.00971007 6.71286e-06 0.00974537 1.71456e-07 272.946 
-0.39 -0.53 -0.255228 0.872319 0.00977653 0.00969353 5.19184e-06 0.00973748 1.71454e-07 272.727 
-0.37 -0.57 -0.253915 0.782579 0.00977032 0.00970389 1.12502e-05 0.00974397 1.71323e-07 273.119 
-0.41 -0.55 -0.242329 0.921639 0.00976299 0.00969885 7.40467e-06 0.00973759 1.71415e-07 272.794 
-0.45 -0.53 -0.0896262 0.598853 0.00976267 0.00969693 -3.21308e-06 0.00972954 1.71311e-07 272.733 
-0.35 -0.57 -0.236855 0.765275 0.00977686 0.00970223 1.75573e-05 0.00974378 1.71457e-07 272.9 
-0.39 -0.55 -0.334173 0.720824 0.00976566 0.00969042 4.10374e-06 0.00973653 1.71362e-07 272.848 
-0.43 -0.53 -0.201696 0.88178 0.0097676 0.00969104 3.40326e-06 0.00973172 1.71404e-07 272.646 
-0.47 -0.51 -0.0453461 0.774684 0.00977225 0.00970212 -2.82554e-06 0.00974096 1.71538e-07 272.692 
-0.37 -0.55 -0.258216 0.761081 0.00976837 0.00969543 9.10867e-06 0.00973875 1.71277e-07 273.044 
-0.41 -0.53 -0.252393 0.755949 0.00977312 0.00969884 4.98542e-06 0.00973645 1.71452e-07 272.703 
-0.45 -0.51 -0.270137 0.721718 0.0097687 0.00969254 2.99495e-06 0.00973562 1.71457e-07 272.672 
-0.37 -0.53 -0.302475 0.733486 0.00977896 0.00969738 -1.21969e-06 0.00974053 1.71503e-07 272.735 
-0.41 -0.51 -0.262179 0.800278 0.00976319 0.00969883 -1.28758e-06 0.00973363 1.71371e-07 272.751 
-0.35 -0.53 -0.374873 0.772772 0.00977511 0.00970408 8.7479e-06 0.00974173 1.71491e-07 272.788 
-0.39 -0.51 -0.375552 0.869815 0.00977167 0.00969388 -7.19576e-07 0.00973415 1.71432e-07 272.67 
-0.37 -0.51 -0.37014 0.741478 0.00977127 0.00969212 4.46525e-06 0.00973171 1.71312e-07 272.792 
-0.35 -0.51 -0.417048 0.839097 0.00976812 0.00969856 1.09094e-05 0.00972729 1.71322e-07 272.652 
-0.49 -0.65 -0.0588751 0.480224 0.00977368 0.00972224 7.83503e-06 0.00975012 1.71508e-07 272.996 
-0.47 -0.65 -0.0745379 0.418438 0.00976979 0.00971375 9.22016e-11 0.00974675 1.71463e-07 272.974 
-0.45 -0.65 -0.0369859 0.62779 0.00976527 0.00971739 6.903e-06 0.00974628 1.71633e-07 272.689 
-0.49 -0.63 0.0437307 0.443611 0.00976939 0.0097251 3.65745e-06 0.00975298 1.71753e-07 272.686 
-0.43 -0.65 -0.00159824 0.577519 0.00975717 0.00969889 5.20679e-06 0.0097348 1.71426e-07 272.698 
-0.47 -0.63 0.0466424 0.532475 0.00976491 0.00970753 2.35155e-06 0.00974239 1.7158e-07 272.665 
-0.41 -0.65 0.00825353 0.54492 0.00976249 0.00970507 9.51411e-06 0.00973697 1.71449e-07 272.721 
-0.45 -0.63 -0.0495829 0.610923 0.00977138 0.00971697 7.77991e-06 0.00974876 1.71632e-07 272.76 
-0.49 -0.61 -0.0400865 0.521252 0.00975687 0.00971102 -4.58323e-06 0.0097399 1.71388e-07 272.901 
-0.39 -0.65 -0.105119 0.438254 0.00975987 0.00971453 7.89063e-06 0.00973795 1.71308e-07 272.974 
-0.43 -0.63 -0.108822 0.589638 0.00977577 0.00970618 8.12441e-06 0.00974278 1.7133e-07 273.073 
-0.47 -0.61 -0.119258 0.492212 0.00976444 0.00971341 7.7495e-06 0.00974373 1.7148e-07 272.861 
-0.37 -0.65 -0.238267 0.473508 0.00975877 0.00969988 3.26849e-06 0.00972706 1.7113e-07 272.952 
-0.41 -0.63 -0.129872 0.594052 0.00977051 0.00969519 2.56204e-06 0.00973555 1.71359e-07 272.825 
-0.45 -0.61 -0.0722872 0.678347 0.00976309 0.00970848 -2.10118e-06 0.00973812 1.71374e-07 272.874 
-0.49 -0.59 0.00120669 0.493438 0.00977041 0.00970556 -6.25276e-06 0.00974627 1.71622e-07 272.707 
-0.35 -0.65 -0.307976 0.468471 0.00976624 0.00971204 1.27098e-05 0.00973766 1.71402e-07 272.815 
-0.39 -0.63 -0.102505 0.504431 0.00977763 0.00971766 1.2646e-05 0.00974799 1.71535e-07 272.893 
-0.43 -0.61 0.00984944 0.637774 0.0097717 0.00970814 4.46365e-06 0.00974173 1.71365e-07 272.988 
-0.47 -0.59 0.0819815 0.536054 0.00977649 0.00971117 -5.28282e-06 0.00974609 1.71478e-07 272.931 
-0.37 -0.63 -0.202474 0.496868 0.00976502 0.00969989 1.16573e-05 0.00973106 1.71226e-07 272.911 
-0.41 -0.61 -0.120156 0.564875 0.00977227 0.00969845 1.05241e-05 0.00973561 1.71275e-07 272.961 
-0.45 -0.59 0.0812373 0.537891 0.00977742 0.00971143 3.32029e-06 0.00974987 1.71489e-07 273.018 
-0.49 -0.57 -0.0538699 0.47952 0.00978027 0.00971106 -4.09436e-06 0.00974962 1.71547e-07 272.92 
-0.35 -0.63 -0.367509 0.597951 0.00975897 0.0097013 1.23143e-05 0.00973058 1.71284e-07 272.805 
-0.39 -0.61 -0.135036 0.463505 0.00976975 0.00970518 8.1461e-06 0.00973791 1.71338e-07 272.925 
-0.43 -0.59 -0.0246984 0.765633 0.00976916 0.00969898 5.48552e-06 0.00974349 1.71497e-07 272.828 
-0.47 -0.57 -0.112588 0.491475 0.00976936 0.0097048 -5.1458e-06 0.00973444 1.71316e-07 272.862 
-0.37 -0.61 -0.183096 0.699799 0.00977395 0.00970558 1.43672e-05 0.0097404 1.71501e-07 272.734 
-0.41 -0.59 -0.0634459 0.620896 0.00977478 0.00970068 4.92727e-06 0.00973795 1.71374e-07 272.869 
-0.45 -0.57 -0.125019 0.675984 0.00976856 0.00970238 2.33133e-06 0.00973771 1.7136e-07 272.884 
-0.49 -0.55 -0.0719305 0.622001 0.00975337 0.00970561 -6.00619e-06 0.00973268 1.71284e-07 272.864 
-0.35 -0.61 -0.219823 0.632561 0.00977081 0.00970047 1.24527e-05 0.00973277 1.71342e-07 272.774 
-0.39 -0.59 -0.126158 0.607448 0.0097721 0.0096925 9.9455e-06 0.00973611 1.71332e-07 272.884 
-0.43 -0.57 0.00279837 0.756895 0.00977341 0.00969818 6.35411e-06 0.00974106 1.7138e-07 272.946 
-0.47 -0.55 -0.188239 0.627413 0.00976416 0.00969586 1.29194e-06 0.009735 1.71409e-07 272.73 
-0.33 -0.61 -0.394183 0.601929 0.00976516 0.00970002 1.76838e-05 0.00973489 1.71258e-07 272.967 
-0.37 -0.59 -0.217006 0.673366 0.00977661 0.00971326 1.88555e-05 0.00974793 1.7154e-07 272.884 
-0.41 -0.57 -0.0786937 0.67427 0.00976686 0.00969891 1.16216e-05 0.00973739 1.71257e-07 273.038 
-0.45 -0.55 -0.205162 0.544155 0.00976324 0.00970176 3.30951e-06 0.00973213 1.71269e-07 272.872 
-0.49 -0.53 0.0364226 0.675226 0.00976267 0.00969678 -3.7389e-06 0.0097365 1.71304e-07 272.94 
-0.35 -0.59 -0.34695 0.743729 0.00976855 0.00969531 1.5569e-05 0.00972884 1.71338e-07 272.67 
-0.39 -0.57 -0.223259 0.754747 0.00976818 0.0096871 9.59015e-06 0.00973335 1.71178e-07 273.051 
-0.43 -0.55 -0.214956 0.630598 0.00976121 0.00969236 8.75774e-06 0.00973208 1.7136e-07 272.725 
-0.47 -0.53 -0.00664037 0.608073 0.00975633 0.00969755 6.87418e-07 0.00972687 1.71215e-07 272.81 
-0.29 -0.57 -0.589313 0.704371 0.00977399 0.00971374 1.8549e-05 0.00974646 1.71449e-07 272.988 
-0.33 -0.55 -0.415365 0.884624 0.00978328 0.00971015 9.16071e-06 0.00974895 1.71474e-07 273.017 
-0.29 -0.61 -0.376443 0.6274 0.00977006 0.00971862 1.01798e-05 0.00974468 1.71619e-07 272.667 
-0.33 -0.59 -0.332644 0.808058 0.00976827 0.00970447 1.40525e-05 0.00973826 1.71331e-07 272.945 
-0.27 -0.61 -0.449264 0.546108 0.00977854 0.00971343 1.41665e-05 0.00974622 1.71587e-07 272.76 
-0.31 -0.59 -0.428355 0.642213 0.00977038 0.00971284 1.01676e-05 0.00974031 1.71421e-07 272.859 
-0.29 -0.59 -0.381145 0.532627 0.00977609 0.00972042 1.0553e-05 0.00974595 1.71569e-07 272.782 
-0.33 -0.57 -0.362244 0.752541 0.00978097 0.00971415 9.45731e-06 0.00974802 1.71392e-07 273.122 
-0.27 -0.59 -0.472816 0.698048 0.00976891 0.00970698 1.35857e-05 0.00973907 1.71484e-07 272.725 
-0.31 -0.57 -0.400525 0.71558 0.00978026 0.00970874 6.53888e-06 0.00974409 1.71495e-07 272.847 
-0.27 -0.57 -0.635564 0.736701 0.0097668 0.00970692 2.36723e-05 0.00974623 1.71527e-07 272.857 
-0.31 -0.55 -0.410472 0.936265 0.00977462 0.00971046 1.81696e-05 0.0097443 1.71432e-07 272.954 
-0.29 -0.55 -0.550482 0.69305 0.00976335 0.00969532 2.1834e-05 0.00973114 1.71193e-07 272.966 
-0.33 -0.53 -0.302857 1.06691 0.00977325 0.00969822 1.40537e-05 0.0097379 1.71347e-07 272.91 
-0.27 -0.55 -0.428432 0.593501 0.00976732 0.00971341 2.05495e-05 0.00974202 1.71417e-07 272.914 
-0.31 -0.53 -0.414251 0.842468 0.00977208 0.00970503 2.38056e-05 0.00974174 1.71475e-07 272.813 
-0.29 -0.53 -0.308847 0.677786 0.00978251 0.00970098 1.87888e-05 0.00974647 1.71468e-07 272.958 
-0.33 -0.51 -0.260333 0.923978 0.00976478 0.00969081 1.60729e-05 0.00972937 1.71113e-07 273.044 
-0.27 -0.53 -0.474249 0.762407 0.00977954 0.0097115 2.24085e-05 0.00974303 1.71507e-07 272.799 
-0.31 -0.51 -0.261544 0.905327 0.00976996 0.00970436 1.74809e-05 0.00973291 1.71323e-07 272.808 
-0.29 -0.51 -0.46715 0.852009 0.00976411 0.00970004 2.29004e-05 0.00973812 1.71435e-07 272.776 
-0.27 -0.51 -0.570113 0.94147 0.00976115 0.0097036 2.76139e-05 0.00973729 1.71366e-07 272.862 
-0.33 -0.65 -0.331423 0.496537 0.00976653 0.00970646 1.81838e-05 0.00973645 1.71294e-07 272.954 
-0.31 -0.65 -0.230738 0.599376 0.00976412 0.00971391 1.29482e-05 0.00974099 1.71345e-07 272.999 
-0.29 -0.65 -0.383228 0.577217 0.00975813 0.00970506 1.34772e-05 0.00973308 1.71229e-07 272.963 
-0.33 -0.63 -0.327069 0.519587 0.0097636 0.00971001 1.03526e-05 0.0097394 1.71373e-07 272.911 
-0.27 -0.65 -0.467354 0.504155 0.00976796 0.00972483 1.20239e-05 0.00974653 1.71479e-07 272.941 
-0.31 -0.63 -0.501116 0.671148 0.00976167 0.00970646 1.76827e-05 0.00973792 1.71311e-07 272.968 
-0.25 -0.65 -0.576305 0.432283 0.00976274 0.00971508 1.31963e-05 0.00974059 1.71455e-07 272.813 
-0.29 -0.63 -0.517173 0.512826 0.00976864 0.00971807 1.2351e-05 0.00974351 1.71502e-07 272.819 
-0.27 -0.63 -0.459885 0.578466 0.0097584 0.00971626 1.41667e-05 0.00973687 1.71454e-07 272.71 
-0.31 -0.61 -0.445542 0.633732 0.00977156 0.00971245 1.43743e-05 0.00974513 1.71561e-07 272.773 
-0.49 -0.67 0.0729094 0.500483 0.00976737 0.00971563 -5.33227e-06 0.00974177 1.71465e-07 272.831 
-0.47 -0.67 0.0610302 0.407692 0.00976653 0.00972045 3.66792e-07 0.00974397 1.71477e-07 272.873 
-0.45 -0.67 0.130304 0.555567 0.00976486 0.00971454 2.93757e-06 0.00974621 1.71523e-07 272.862 