ITEM: TIMESTEP
1032000
ITEM: NUMBER OF CELLS
5000
ITEM: BOX BOUNDS ss ss pp
-0.5 0.5
-1 1
-0.5 0.5
ITEM: CELLS xc yc f_U[*] f_V[*] f_Tau[1] f_Tau[2] f_Tau[3] f_Press[*] f_Mrho[*] f_Ttra[*] 
-0.49 -0.99 -0.0284859 0.11709 0.00976411 0.00973514 9.28068e-06 0.00975065 1.71551e-07 272.942 
-0.47 -0.99 -0.181759 0.021204 0.00975041 0.00971789 8.02219e-06 0.00973768 1.71438e-07 272.759 
-0.45 -0.99 -0.299056 0.0210712 0.00975264 0.00973262 6.4856e-06 0.0097471 1.71474e-07 272.966 
-0.49 -0.97 -0.0819001 0.16443 0.00974491 0.00972425 1.24547e-05 0.00973456 1.71346e-07 272.818 
-0.43 -0.99 -0.291366 -0.0752074 0.00974459 0.00972493 4.79322e-06 0.0097406 1.71336e-07 273.002 
-0.47 -0.97 -0.11515 0.140337 0.00974526 0.00972015 1.47908e-05 0.00973771 1.71367e-07 272.873 
-0.41 -0.99 -0.131438 -0.0372696 0.00974035 0.00973169 4.34485e-07 0.00974041 1.71347e-07 272.981 
-0.45 -0.97 -0.0560034 0.0307937 0.00974521 0.00973625 6.13183e-06 0.0097459 1.71448e-07 272.972 
-0.49 -0.95 0.0641055 0.12101 0.00973459 0.00971268 3.76917e-06 0.00973256 1.71255e-07 272.906 
-0.39 -0.99 -0.16125 0.0652341 0.00974298 0.00972783 2.01221e-06 0.00973557 1.71144e-07 273.167 
-0.43 -0.97 0.00657918 0.0421238 0.00974906 0.00972856 2.59622e-06 0.0097445 1.7138e-07 273.042 
-0.47 -0.95 0.139694 0.128425 0.00975138 0.0097271 9.59841e-07 0.00973956 1.71371e-07 272.917 
-0.37 -0.99 -0.169061 -0.0314021 0.00974105 0.00972868 7.96708e-06 0.00973677 1.71276e-07 272.991 
-0.41 -0.97 -0.187979 -0.159801 0.00974345 0.00972897 5.10736e-06 0.00973884 1.71356e-07 272.922 
-0.45 -0.95 0.215124 -0.0887435 0.00975902 0.00974006 6.85955e-06 0.00975586 1.71609e-07 272.996 
-0.49 -0.93 -0.0049041 0.0786621 0.00976798 0.00972157 -5.15483e-07 0.00974811 1.71492e-07 272.964 
-0.35 -0.99 -0.083339 -0.110555 0.00973297 0.00970672 5.05664e-06 0.00971673 1.71022e-07 272.834 
-0.39 -0.97 -0.0599413 0.0329518 0.00974054 0.00972549 6.36501e-06 0.00973919 1.71393e-07 272.873 
-0.43 -0.95 0.135813 0.065889 0.00975815 0.00972489 7.84932e-06 0.00974778 1.71529e-07 272.897 
-0.47 -0.93 0.0249833 0.00184571 0.00976018 0.00972389 6.71007e-07 0.00974446 1.71482e-07 272.878 
-0.33 -0.99 -0.0136092 0.0438636 0.00973447 0.0097281 5.30332e-06 0.00972851 1.71233e-07 272.828 
-0.37 -0.97 -0.00325521 -0.114854 0.0097385 0.00972886 5.91838e-06 0.00974086 1.71321e-07 273.035 
-0.41 -0.95 0.0616684 0.0551775 0.00975877 0.00973151 3.51238e-06 0.00974646 1.71556e-07 272.817 
-0.45 -0.93 -0.0574543 0.0448875 0.00975758 0.00973359 4.46139e-06 0.00974666 1.71544e-07 272.842 
-0.49 -0.91 0.00862279 0.148723 0.00977396 0.00972756 1.19684e-05 0.00975433 1.71473e-07 273.169 
-0.35 -0.97 -0.0449222 -0.0447153 0.00973719 0.00971142 8.76573e-06 0.0097299 1.71197e-07 272.925 
-0.39 -0.95 -0.126546 -0.0824099 0.0097531 0.00972458 7.2419e-06 0.00974021 1.71478e-07 272.766 
-0.43 -0.93 -0.0823801 0.0711576 0.00975814 0.00972862 2.78011e-06 0.00974037 1.7143e-07 272.846 
-0.47 -0.91 -0.18174 -0.0164993 0.00976411 0.00972517 6.33926e-06 0.00974454 1.71514e-07 272.83 
-0.33 -0.97 -0.11177 -0.0268414 0.00974109 0.00972503 3.04563e-06 0.00973796 1.71436e-07 272.77 
-0.37 -0.95 -0.108944 -0.096755 0.00975505 0.00972232 1.21327e-05 0.00974333 1.71314e-07 273.114 
-0.41 -0.93 -0.0632333 0.0561728 0.00975547 0.00972619 1.1514e-05 0.00973548 1.71336e-07 272.859 
-0.45 -0.91 -0.036558 0.0163605 0.00976481 0.00972873 5.36545e-06 0.00975232 1.71573e-07 272.954 
-0.49 -0.89 -0.000187355 0.0910085 0.00976721 0.00972707 1.1516e-05 0.00974903 1.71452e-07 273.055 
-0.35 -0.95 -0.0586945 -0.0313453 0.0097556 0.00972017 4.22854e-06 0.00974194 1.71399e-07 272.941 
-0.39 -0.93 0.052854 -0.066872 0.00975269 0.00972626 8.14147e-06 0.0097412 1.71592e-07 272.613 
-0.43 -0.91 -0.0994258 0.0620648 0.00975786 0.00973145 8.4116e-06 0.00974303 1.71341e-07 273.063 
-0.47 -0.89 0.10384 0.0762284 0.00976886 0.00973304 8.48817e-06 0.00975034 1.71596e-07 272.861 
-0.37 -0.93 -0.0264342 -0.0198774 0.00975391 0.00972221 3.39904e-06 0.00974471 1.71401e-07 273.015 
-0.41 -0.91 -0.0239926 -0.0209508 0.00976527 0.00971928 5.02637e-06 0.00974204 1.71393e-07 272.953 
-0.45 -0.89 -0.0994921 0.119108 0.0097602 0.00972129 4.59378e-06 0.00974256 1.71428e-07 272.912 
-0.49 -0.87 -0.0374213 0.128739 0.00975027 0.00971647 -6.67251e-07 0.00973369 1.71318e-07 272.838 
-0.35 -0.93 -0.355963 0.0274193 0.00975524 0.00972213 9.92627e-06 0.0097379 1.71409e-07 272.812 
-0.39 -0.91 -0.0825183 -0.0684355 0.00976853 0.00973059 1.26673e-05 0.0097532 1.71705e-07 272.769 
-0.43 -0.89 -0.1486 0.0236915 0.00976802 0.00973942 6.41671e-06 0.00975366 1.71518e-07 273.079 
-0.47 -0.87 0.0520865 0.0947856 0.00975795 0.00973276 9.46615e-06 0.00974192 1.71395e-07 272.946 
-0.37 -0.91 -0.209605 0.230873 0.00975657 0.00972218 1.15232e-05 0.00973948 1.71585e-07 272.576 
-0.41 -0.89 -0.15532 -0.0276852 0.00976082 0.00971328 4.38988e-06 0.00974176 1.71498e-07 272.778 
-0.45 -0.87 -0.108948 0.118005 0.00976622 0.00972166 9.50444e-06 0.00975004 1.71511e-07 272.989 
-0.49 -0.85 -0.0450736 0.140313 0.00975349 0.00971385 -1.00344e-06 0.00973269 1.71215e-07 272.974 
-0.35 -0.91 -0.131286 0.134391 0.00975026 0.00972298 4.44772e-06 0.00973703 1.71435e-07 272.745 
-0.39 -0.89 -0.118255 0.141654 0.00975725 0.00972045 1.24676e-05 0.00974635 1.71529e-07 272.856 
-0.43 -0.87 -0.103364 0.144769 0.00975321 0.00973996 1.0834e-05 0.00974976 1.71575e-07 272.879 
-0.47 -0.85 -0.153208 0.175581 0.00975732 0.0097261 1.18023e-06 0.009746 1.71364e-07 273.109 
-0.33 -0.91 -0.226332 -0.0556092 0.00975245 0.00971834 1.25332e-05 0.00973852 1.7143e-07 272.795 
-0.37 -0.89 -0.214187 0.104513 0.00976429 0.00973201 1.77447e-05 0.00975464 1.71668e-07 272.868 
-0.41 -0.87 -0.21541 -0.0299495 0.00975565 0.0097161 7.99108e-06 0.00973685 1.71495e-07 272.645 
-0.45 -0.85 -0.118586 0.158875 0.00975983 0.00971802 8.90207e-06 0.00974336 1.71367e-07 273.03 
-0.35 -0.89 -0.224298 0.16587 0.00976517 0.00972125 1.1599e-05 0.00974036 1.71458e-07 272.802 
-0.39 -0.87 -0.278634 0.129749 0.00976259 0.00971461 6.65342e-06 0.00974294 1.71503e-07 272.802 
-0.43 -0.85 -0.213574 0.156683 0.00976946 0.00974166 9.29563e-06 0.00975028 1.71645e-07 272.782 
-0.37 -0.87 -0.339441 0.212588 0.00976969 0.00973024 9.32733e-06 0.00975256 1.71604e-07 272.911 
-0.41 -0.85 -0.171068 0.0986993 0.00976839 0.00971904 9.32225e-06 0.00974628 1.71616e-07 272.716 
-0.35 -0.87 -0.325938 0.120634 0.00977057 0.00972342 1.22078e-05 0.00974507 1.71465e-07 272.923 
-0.39 -0.85 -0.296686 0.327583 0.00976625 0.00971512 1.95454e-06 0.00974761 1.71556e-07 272.849 
-0.33 -0.87 -0.350539 0.0945208 0.00976797 0.00972275 1.41938e-05 0.00974799 1.71548e-07 272.873 
-0.37 -0.85 -0.322226 0.0784745 0.00976739 0.00972444 8.99306e-06 0.00974712 1.71512e-07 272.905 
-0.35 -0.85 -0.288406 0.167569 0.00976517 0.00971898 1.34867e-05 0.00974264 1.71351e-07 273.037 
-0.33 -0.85 -0.440972 0.254052 0.0097669 0.00972408 1.47444e-05 0.00974258 1.71426e-07 272.915 
-0.31 -0.99 0.048758 -0.0263403 0.00973095 0.00971504 1.36978e-05 0.00972131 1.71194e-07 272.688 
-0.29 -0.99 -0.059662 0.0756513 0.00973244 0.00971845 9.54941e-06 0.00973035 1.71215e-07 272.908 
-0.27 -0.99 -0.123828 0.0198564 0.00974294 0.00972794 6.28964e-06 0.00973388 1.71162e-07 273.092 
-0.31 -0.97 -0.343706 -0.00140976 0.0097476 0.00971951 5.00866e-06 0.00973544 1.71407e-07 272.746 
-0.29 -0.97 -0.409457 0.240506 0.00975503 0.0097194 9.38067e-06 0.00974733 1.71525e-07 272.891 
-0.33 -0.95 -0.094527 0.101914 0.00974982 0.00972193 8.80751e-06 0.00973801 1.71365e-07 272.884 
-0.27 -0.97 -0.310404 -0.0540137 0.00974421 0.00972251 1.08615e-05 0.00973805 1.71365e-07 272.886 
-0.31 -0.95 -0.197814 0.262828 0.00974644 0.00971988 7.17544e-06 0.00973191 1.71351e-07 272.736 
-0.29 -0.95 -0.144264 0.095631 0.00974147 0.00970861 7.95643e-06 0.00972505 1.71266e-07 272.678 
-0.33 -0.93 -0.32899 0.143875 0.0097576 0.00971843 3.8343e-06 0.00973715 1.71321e-07 272.93 
-0.27 -0.95 -0.288172 -0.0157033 0.00974767 0.00972885 7.57692e-06 0.00974034 1.7136e-07 272.957 
-0.31 -0.93 -0.12397 0.100052 0.00975777 0.00971847 9.48803e-06 0.00973904 1.71565e-07 272.596 
-0.29 -0.93 -0.173825 0.239917 0.00975963 0.00971099 8.71408e-06 0.00973828 1.71479e-07 272.71 
-0.27 -0.93 -0.196051 0.125674 0.00975879 0.00972176 1.01151e-05 0.00974396 1.71522e-07 272.801 
-0.31 -0.91 -0.245575 0.168889 0.00975277 0.00971833 9.2206e-06 0.00973936 1.71474e-07 272.748 
-0.29 -0.91 -0.246117 0.115911 0.00975061 0.00971154 2.99585e-06 0.00973033 1.71346e-07 272.7 
-0.33 -0.89 -0.246612 -0.00576632 0.00975743 0.00972219 7.48031e-06 0.0097426 1.7144e-07 272.894 
-0.27 -0.91 -0.0727512 0.162189 0.00975538 0.00971766 5.91223e-06 0.00973495 1.71446e-07 272.67 
-0.31 -0.89 -0.212711 0.1576 0.00976026 0.00971937 4.39632e-06 0.00974638 1.7153e-07 272.855 
-0.29 -0.89 -0.205546 0.0427907 0.00975699 0.00971243 8.60597e-06 0.00974144 1.71352e-07 273.001 
-0.27 -0.89 -0.337036 0.254391 0.00974995 0.00971484 9.0885e-06 0.00974091 1.71426e-07 272.869 
-0.31 -0.87 -0.458299 0.192579 0.00975929 0.00972217 8.6587e-06 0.00974048 1.7147e-07 272.786 
-0.29 -0.87 -0.447296 0.0673919 0.00975422 0.00970636 9.38382e-06 0.00973638 1.7132e-07 272.911 
-0.27 -0.87 -0.408492 0.238222 0.00975617 0.00971756 1.45162e-05 0.00974177 1.71417e-07 272.906 
-0.31 -0.85 -0.392055 -0.00251685 0.00976654 0.00972516 1.85243e-05 0.0097478 1.71519e-07 272.913 
-0.29 -0.85 -0.245365 0.163873 0.00975819 0.00970678 1.37676e-05 0.0097411 1.7139e-07 272.93 
-0.27 -0.85 -0.272709 0.12965 0.00975565 0.00971551 1.04267e-05 0.00973884 1.71182e-07 273.199 
-0.25 -0.99 -0.231639 0.0787149 0.00974593 0.00973315 1.20165e-05 0.0097416 1.71377e-07 272.965 
-0.25 -0.97 -0.172933 0.0867988 0.00974434 0.00972726 8.20862e-06 0.0097388 1.71464e-07 272.748 
-0.25 -0.95 -0.410249 0.0494832 0.00974519 0.00972894 9.98215e-06 0.00973886 1.7136e-07 272.916 
-0.25 -0.93 -0.177484 0.0882079 0.00975899 0.0097337 1.28145e-05 0.00974487 1.71551e-07 272.78 
-0.25 -0.91 -0.246728 0.131749 0.00975624 0.00973061 1.10567e-05 0.00974562 1.71581e-07 272.754 
-0.25 -0.89 -0.327662 0.200761 0.00974917 0.00972196 1.44949e-05 0.00973745 1.71346e-07 272.899 
-0.25 -0.87 -0.422975 0.218385 0.00975058 0.0097152 1.54697e-05 0.00973758 1.71294e-07 272.986 
-0.25 -0.85 -0.237606 0.327979 0.00976206 0.00971717 1.09917e-05 0.00974563 1.71368e-07 273.093 
-0.25 -0.83 -0.426158 0.266803 0.00975924 0.00971163 8.57943e-06 0.00974149 1.71324e-07 273.047 
-0.33 -0.81 -0.0905757 0.236898 0.009764 0.00971236 1.35288e-05 0.00974051 1.71456e-07 272.809 
-0.31 -0.81 -0.225077 0.138207 0.00977728 0.00972456 1.36023e-05 0.00975376 1.71505e-07 273.102 
-0.29 -0.81 -0.28335 0.131725 0.00977948 0.00972455 1.1924e-05 0.00975486 1.71516e-07 273.115 
-0.27 -0.81 -0.352162 0.296866 0.00977399 0.00971587 1.37722e-05 0.00975147 1.71444e-07 273.135 
-0.31 -0.79 -0.277266 0.181907 0.00975545 0.00971996 8.07202e-06 0.00973962 1.71453e-07 272.789 
-0.29 -0.79 -0.382796 0.34743 0.0097591 0.00971951 1.27419e-05 0.00973907 1.71484e-07 272.724 
-0.33 -0.77 -0.330861 0.325739 0.00976971 0.00972412 1.82216e-05 0.00974583 1.71499e-07 272.89 
-0.27 -0.79 -0.468705 0.238177 0.00976298 0.00971229 1.48682e-05 0.00974068 1.71395e-07 272.911 
-0.31 -0.77 -0.301559 0.185585 0.00976528 0.00971897 1.24281e-05 0.00974542 1.71547e-07 272.801 
-0.29 -0.77 -0.290103 0.366702 0.00975522 0.00971539 1.06525e-05 0.00973898 1.71552e-07 272.614 
-0.27 -0.77 -0.367123 0.269402 0.00975504 0.00970934 1.04825e-05 0.00973675 1.71386e-07 272.816 
-0.31 -0.75 -0.191272 0.376436 0.00976238 0.00972098 1.43527e-05 0.00975039 1.71627e-07 272.813 
-0.29 -0.75 -0.495548 0.386587 0.00976219 0.00971909 1.576e-05 0.00974776 1.71561e-07 272.846 
-0.27 -0.75 -0.483272 0.515504 0.00976129 0.00970692 1.8007e-05 0.00973404 1.71315e-07 272.852 
-0.49 -0.83 -0.0574637 0.277365 0.00975376 0.00971812 -2.43514e-06 0.00973677 1.71347e-07 272.879 
-0.47 -0.83 -0.144375 0.142524 0.00975176 0.00971994 2.47414e-06 0.00973764 1.71562e-07 272.561 
-0.45 -0.83 -0.171827 0.220173 0.00975314 0.00971959 -3.853e-07 0.00973922 1.71427e-07 272.819 
-0.49 -0.81 -0.0231542 0.319482 0.00976084 0.00972065 2.59764e-07 0.00974207 1.71474e-07 272.824 
-0.43 -0.83 -0.133217 0.21171 0.00975492 0.00972668 5.62999e-06 0.00974199 1.71498e-07 272.785 
-0.47 -0.81 -0.126575 0.220398 0.00976086 0.00971846 -9.68494e-07 0.00974441 1.71489e-07 272.866 
-0.45 -0.81 -0.0932272 0.222385 0.00976572 0.00972305 1.44788e-06 0.00974415 1.71506e-07 272.831 
-0.49 -0.79 -0.0296316 0.485666 0.0097609 0.00972281 3.23428e-06 0.0097424 1.71472e-07 272.837 
-0.43 -0.81 -0.116476 0.256974 0.00976212 0.00971436 3.26216e-06 0.00974115 1.71589e-07 272.615 
-0.47 -0.79 -0.00614544 0.107472 0.00975679 0.00971943 -5.75945e-06 0.0097409 1.7143e-07 272.862 
-0.41 -0.81 -0.261438 0.191166 0.00976548 0.00973134 1.16286e-05 0.00975434 1.71603e-07 272.964 
-0.45 -0.79 -0.0511114 0.264665 0.00975733 0.00971764 1.64052e-06 0.00973526 1.71416e-07 272.725 
-0.49 -0.77 0.0595706 0.367812 0.00975876 0.00972437 4.78155e-06 0.0097456 1.71428e-07 272.996 
-0.39 -0.81 -0.293161 0.246037 0.00975599 0.00971505 1.45972e-05 0.00974269 1.71567e-07 272.694 
-0.43 -0.79 -0.306041 0.420208 0.0097649 0.00971338 2.4474e-06 0.00973769 1.71492e-07 272.673 
-0.47 -0.77 -0.0167692 0.317321 0.00975749 0.00972641 3.3273e-06 0.00974514 1.71408e-07 273.015 
-0.37 -0.81 -0.0537739 0.0986796 0.00975543 0.0097169 9.02705e-06 0.00973595 1.71529e-07 272.565 
-0.41 -0.79 -0.336642 0.28894 0.00976774 0.00972512 7.94925e-06 0.00975069 1.71675e-07 272.746 
-0.45 -0.77 -0.334102 0.461612 0.00975614 0.00971335 -4.68691e-06 0.00973599 1.71439e-07 272.71 
-0.35 -0.81 -0.0163868 0.189636 0.0097504 0.00971313 5.874e-06 0.00973752 1.71421e-07 272.781 
-0.39 -0.79 -0.233944 0.121361 0.00976885 0.009716 1.0231e-05 0.00974361 1.7162e-07 272.635 
-0.43 -0.77 -0.256158 0.434925 0.00975383 0.00971194 6.72832e-07 0.00973439 1.71431e-07 272.678 
-0.37 -0.79 -0.234486 0.0786352 0.009777 0.00971721 1.12077e-05 0.00974643 1.7159e-07 272.761 
-0.41 -0.77 -0.218512 0.12488 0.0097539 0.00971193 8.04842e-06 0.00973497 1.71401e-07 272.742 
-0.35 -0.79 -0.221968 0.138328 0.0097749 0.00971714 1.4656e-05 0.00974763 1.716e-07 272.779 
-0.39 -0.77 -0.10513 0.124351 0.0097554 0.0097228 1.18227e-05 0.0097449 1.71595e-07 272.712 
-0.43 -0.75 0.0405196 0.171175 0.00976534 0.00971031 -2.1869e-06 0.00974138 1.71465e-07 272.819 
-0.33 -0.79 -0.265548 0.296813 0.0097592 0.00971421 6.48631e-06 0.0097369 1.71418e-07 272.77 
-0.37 -0.77 -0.16285 0.165521 0.00975659 0.00971367 4.2653e-06 0.00973753 1.71457e-07 272.725 
-0.41 -0.75 -0.0110705 0.339755 0.0097669 0.0097038 6.07312e-06 0.00974247 1.71541e-07 272.729 
-0.35 -0.77 -0.378866 0.244432 0.00976534 0.00971499 9.56706e-06 0.00973887 1.71398e-07 272.855 
-0.39 -0.75 -0.24032 0.153094 0.00977305 0.00972357 6.52055e-06 0.00975271 1.71688e-07 272.782 
-0.49 -0.75 -0.0360286 0.32767 0.0097657 0.00972916 8.13638e-06 0.00975014 1.71475e-07 273.049 
-0.47 -0.75 -0.0933147 0.514498 0.00976384 0.00973239 5.58904e-06 0.00974307 1.71339e-07 273.068 
-0.45 -0.75 -0.0903444 0.562908 0.00976166 0.0097116 1.67169e-07 0.00973315 1.71454e-07 272.607 
-0.49 -0.73 -0.0909899 0.520898 0.00977089 0.00972176 7.41303e-06 0.00974595 1.71415e-07 273.026 
-0.47 -0.73 -0.183516 0.449952 0.00977439 0.00974195 4.6771e-06 0.00975312 1.71448e-07 273.176 
-0.45 -0.73 -0.0849885 0.312984 0.0097746 0.00971744 -4.09829e-06 0.00974128 1.71454e-07 272.835 
-0.49 -0.71 0.008699 0.608677 0.00977187 0.00972026 5.89497e-07 0.00974454 1.71524e-07 272.814 
-0.43 -0.73 -0.0490264 0.363719 0.0097638 0.00970435 6.13596e-06 0.00973604 1.71383e-07 272.801 
-0.47 -0.71 -0.00460627 0.500706 0.00977334 0.00974002 2.40908e-06 0.00975526 1.71486e-07 273.174 
-0.37 -0.75 -0.203756 0.109088 0.00976439 0.00971424 1.30614e-05 0.00973818 1.71483e-07 272.701 
-0.41 -0.73 -0.137621 0.339483 0.00976275 0.0097023 -8.23958e-08 0.00973775 1.71533e-07 272.609 
-0.45 -0.71 0.0833024 0.230347 0.00976299 0.00971707 9.49598e-06 0.00973998 1.71326e-07 273.001 
-0.49 -0.69 0.048173 0.531059 0.00976324 0.00971641 -6.60651e-06 0.00974224 1.71435e-07 272.891 
-0.35 -0.75 -0.0587755 0.296207 0.00975677 0.00971065 1.04841e-05 0.00973424 1.71353e-07 272.798 
-0.39 -0.73 -0.152238 0.191661 0.00976373 0.00970978 1.12894e-05 0.0097398 1.71401e-07 272.877 
-0.43 -0.71 -0.10762 0.381174 0.00976293 0.00970653 4.88656e-06 0.009737 1.71524e-07 272.603 
-0.47 -0.69 0.168778 0.451326 0.00976925 0.00972877 4.42863e-06 0.00975027 1.71447e-07 273.097 
-0.37 -0.73 -0.329441 0.158546 0.00977007 0.0097215 1.2798e-05 0.00974557 1.7154e-07 272.817 
-0.41 -0.71 -0.083592 0.462182 0.00976732 0.00969725 3.53009e-06 0.0097381 1.71648e-07 272.437 
-0.45 -0.69 -0.0559244 0.412819 0.00977948 0.00971664 1.02868e-05 0.00975127 1.71588e-07 272.9 
-0.35 -0.73 -0.578057 0.413915 0.00976889 0.00971178 1.06315e-05 0.00974356 1.71557e-07 272.735 
-0.39 -0.71 -0.192195 0.248874 0.00976774 0.00971396 2.58854e-06 0.00973947 1.71498e-07 272.713 
-0.43 -0.69 -0.147548 0.465568 0.00977844 0.00971454 9.29253e-06 0.00975351 1.71827e-07 272.583 
-0.33 -0.73 -0.398518 0.14547 0.00976978 0.00970862 1.50467e-05 0.00974125 1.71585e-07 272.625 
-0.37 -0.71 -0.167508 0.258051 0.00976671 0.00971278 1.3005e-05 0.00974368 1.71542e-07 272.761 
-0.41 -0.69 -0.145471 0.382143 0.00977054 0.00970278 3.81376e-06 0.00973917 1.7165e-07 272.463 
-0.35 -0.71 -0.242951 0.479048 0.00976772 0.00970687 9.85197e-06 0.00974487 1.71562e-07 272.763 
-0.39 -0.69 -0.136766 0.416689 0.00976399 0.00970354 8.2858e-06 0.00973647 1.71413e-07 272.764 
-0.37 -0.69 -0.322976 0.324465 0.00976318 0.00971119 1.235e-05 0.0097411 1.71501e-07 272.755 
-0.35 -0.69 -0.302808 0.500125 0.00976385 0.00970355 1.24509e-05 0.00973356 1.7136e-07 272.767 
-0.35 -0.67 -0.250207 0.458068 0.00977501 0.00971508 1.09368e-05 0.0097451 1.71481e-07 272.899 
-0.33 -0.67 -0.343722 0.509512 0.00976105 0.00970369 8.76056e-06 0.0097412 1.71534e-07 272.705 
-0.33 -0.75 -0.121305 0.229203 0.00975736 0.00971654 1.1428e-05 0.0097375 1.71366e-07 272.868 
-0.31 -0.73 -0.419965 0.474035 0.00976733 0.0097253 1.44473e-05 0.00975183 1.71624e-07 272.859 
-0.29 -0.73 -0.313623 0.490828 0.00977114 0.00971174 1.5183e-05 0.00975126 1.71563e-07 272.94 
-0.33 -0.71 -0.498335 0.121008 0.00976474 0.00971239 1.50492e-05 0.00974158 1.715e-07 272.769 
-0.27 -0.73 -0.410977 0.535788 0.00976618 0.00971701 1.99357e-05 0.00974787 1.71458e-07 273.012 
-0.31 -0.71 -0.394925 0.418492 0.00976589 0.00972392 1.6047e-05 0.00974771 1.71585e-07 272.806 
-0.29 -0.71 -0.470171 0.447946 0.00975963 0.00970678 1.94201e-05 0.00974087 1.71343e-07 273 
-0.33 -0.69 -0.332134 0.271805 0.00977446 0.00971319 6.03482e-06 0.00974671 1.71674e-07 272.636 
-0.27 -0.71 -0.403459 0.509829 0.00976396 0.00971209 1.46634e-05 0.00974055 1.71299e-07 273.061 
-0.31 -0.69 -0.574335 0.445053 0.00977669 0.00971633 1.57608e-05 0.00975027 1.71603e-07 272.848 
-0.29 -0.69 -0.511313 0.529589 0.00977792 0.0097139 1.94598e-05 0.00975208 1.71588e-07 272.924 
-0.27 -0.69 -0.534245 0.387908 0.00977683 0.00971649 1.4849e-05 0.0097469 1.71346e-07 273.163 
-0.31 -0.67 -0.39844 0.545435 0.00975884 0.00971171 1.44909e-05 0.00973977 1.7148e-07 272.751 
-0.29 -0.67 -0.443889 0.415151 0.00976352 0.00971297 1.62624e-05 0.00974115 1.71303e-07 273.07 
-0.41 -0.83 -0.17472 0.152099 0.00975622 0.0097279 9.91953e-06 0.00974357 1.71565e-07 272.722 
-0.39 -0.83 -0.170132 0.337911 0.0097551 0.00971663 5.54722e-06 0.00973232 1.71411e-07 272.651 
-0.37 -0.83 -0.222598 0.222071 0.00974828 0.0097164 6.84841e-06 0.009732 1.71256e-07 272.89 
-0.35 -0.83 -0.27216 0.0986245 0.00975656 0.00971717 1.66284e-05 0.00973595 1.71355e-07 272.842 
-0.33 -0.83 -0.182672 0.306808 0.00975495 0.0097226 1.41127e-05 0.00973777 1.71259e-07 273.046 
-0.31 -0.83 -0.155014 -0.187244 0.00975009 0.00971531 1.95996e-05 0.0097402 1.71468e-07 272.781 
-0.29 -0.83 -0.230456 0.183652 0.00975785 0.00972111 1.7366e-05 0.00974764 1.71341e-07 273.192 
-0.27 -0.83 -0.345008 0.269984 0.00975868 0.00971625 7.80701e-06 0.00974492 1.71366e-07 273.077 
-0.27 -0.67 -0.47066 0.482624 0.00976194 0.00971726 1.80326e-05 0.00974177 1.7135e-07 273.014 
-0.25 -0.67 -0.489525 0.454144 0.00977212 0.00972233 1.30434e-05 0.00975373 1.71413e-07 273.248 
-0.25 -0.81 -0.297757 0.331336 0.00976134 0.00971314 8.46125e-06 0.00974352 1.71405e-07 272.974 
-0.25 -0.79 -0.368271 0.206235 0.00976729 0.00972239 2.00104e-05 0.00974413 1.71417e-07 272.973 
-0.35 -0.55 -0.248226 0.759156 0.00978227 0.00971197 7.05277e-06 0.00974501 1.71426e-07 272.983 
-0.39 -0.53 -0.289289 0.913182 0.00977517 0.00969145 4.55799e-06 0.00973755 1.71401e-07 272.815 
-0.37 -0.57 -0.258703 0.784943 0.00976807 0.00970341 1.29309e-05 0.00974177 1.71315e-07 273.069 
-0.41 -0.55 -0.197614 0.895815 0.00976035 0.00969997 8.09386e-06 0.00973701 1.71414e-07 272.779 
-0.45 -0.53 -0.105497 0.583622 0.00976183 0.00969425 -1.23009e-06 0.00972765 1.71277e-07 272.734 
-0.35 -0.57 -0.250771 0.745561 0.00977569 0.00970301 2.00998e-05 0.00974187 1.71427e-07 272.893 
-0.39 -0.55 -0.319901 0.75237 0.00976238 0.00968674 5.30443e-06 0.00973442 1.71293e-07 272.899 
-0.43 -0.53 -0.210548 0.812057 0.00976612 0.00969145 5.13537e-06 0.00973167 1.71414e-07 272.629 
-0.47 -0.51 -0.0722466 0.766674 0.00976962 0.00970062 5.63052e-07 0.00973694 1.71496e-07 272.646 
-0.37 -0.55 -0.289089 0.762091 0.00976607 0.00969337 8.67132e-06 0.00973688 1.71222e-07 273.081 
-0.41 -0.53 -0.272628 0.777751 0.00977211 0.00970154 5.13506e-06 0.00973738 1.71466e-07 272.706 
-0.45 -0.51 -0.286625 0.689667 0.00976793 0.0096913 4.23784e-06 0.00973455 1.71421e-07 272.698 
-0.37 -0.53 -0.299561 0.713957 0.00977822 0.0096942 -1.46253e-06 0.00973938 1.71435e-07 272.811 
-0.41 -0.51 -0.31581 0.822999 0.00976525 0.00970051 -1.21743e-06 0.00973584 1.71429e-07 272.722 
-0.35 -0.53 -0.382597 0.775577 0.00977363 0.00970519 7.89265e-06 0.00974006 1.71491e-07 272.741 
-0.39 -0.51 -0.363582 0.881604 0.00976994 0.00969111 6.59599e-07 0.00973282 1.71429e-07 272.637 
-0.37 -0.51 -0.406948 0.804082 0.00976777 0.00969028 5.00893e-06 0.00973121 1.71284e-07 272.823 
-0.35 -0.51 -0.427822 0.804571 0.00976553 0.00969795 1.06539e-05 0.00972676 1.71321e-07 272.639 
-0.49 -0.65 -0.0654529 0.484155 0.00977214 0.00972327 6.57241e-06 0.0097497 1.71522e-07 272.961 
-0.47 -0.65 -0.089692 0.417041 0.00976838 0.00971396 1.71787e-06 0.00974551 1.71481e-07 272.91 
-0.45 -0.65 -0.0556816 0.651611 0.00976293 0.00971804 6.89335e-06 0.00974499 1.71638e-07 272.645 
-0.49 -0.63 0.0113864 0.469556 0.00976915 0.00972668 3.67736e-06 0.00975571 1.71807e-07 272.676 
-0.43 -0.65 0.0348188 0.561967 0.00975649 0.00969803 6.23804e-06 0.00973495 1.71448e-07 272.666 
-0.47 -0.63 -0.00961538 0.509129 0.00976438 0.00970555 2.95238e-06 0.00974162 1.71576e-07 272.649 
-0.41 -0.65 0.0315377 0.574684 0.00976129 0.00970452 1.13553e-05 0.0097387 1.71429e-07 272.801 
-0.45 -0.63 -0.0562498 0.574815 0.00977298 0.00971946 8.1272e-06 0.00975088 1.71665e-07 272.767 
-0.49 -0.61 -0.0347616 0.551185 0.00975943 0.009712 -5.09302e-06 0.00974261 1.71442e-07 272.891 
-0.39 -0.65 -0.0894683 0.454807 0.00976012 0.00971424 7.17779e-06 0.00974091 1.71333e-07 273.016 
-0.43 -0.63 -0.115682 0.601616 0.00977611 0.00970466 9.85585e-06 0.00974174 1.71353e-07 273.007 
-0.47 -0.61 -0.125161 0.487614 0.00976688 0.00971341 6.84682e-06 0.00974503 1.7151e-07 272.85 
-0.37 -0.65 -0.19218 0.482907 0.00975943 0.00969835 1.7095e-06 0.00972872 1.7113e-07 272.999 
-0.41 -0.63 -0.156003 0.63912 0.00977014 0.00969561 2.84048e-06 0.00973557 1.71365e-07 272.816 
-0.45 -0.61 -0.0969313 0.652599 0.00976397 0.00970808 -2.21109e-06 0.00973945 1.71382e-07 272.897 
-0.49 -0.59 -0.0122125 0.5225 0.00977108 0.00970445 -6.15283e-06 0.00974703 1.71639e-07 272.701 
-0.35 -0.65 -0.265114 0.472794 0.00976736 0.00971243 1.15521e-05 0.00973903 1.71433e-07 272.804 
-0.39 -0.63 -0.129419 0.537521 0.00977778 0.00971808 1.30523e-05 0.00974871 1.71491e-07 272.984 
-0.43 -0.61 -0.0515975 0.66115 0.0097743 0.00970667 5.75148e-06 0.00974207 1.71385e-07 272.966 
-0.47 -0.59 0.0953691 0.538379 0.00977951 0.00971469 -5.65878e-06 0.00975099 1.71539e-07 272.971 
-0.37 -0.63 -0.234779 0.476931 0.0097639 0.00969909 1.19506e-05 0.00973115 1.71193e-07 272.966 
-0.41 -0.61 -0.134558 0.578911 0.0097751 0.00970155 1.04207e-05 0.00973783 1.71328e-07 272.938 
-0.45 -0.59 0.0666561 0.507622 0.00978027 0.0097103 3.11378e-06 0.0097519 1.71552e-07 272.975 
-0.49 -0.57 -0.0676837 0.492696 0.00977946 0.00970758 -6.37431e-06 0.00974681 1.71528e-07 272.871 
-0.35 -0.63 -0.327916 0.585912 0.00975783 0.00970001 1.17553e-05 0.00972928 1.71256e-07 272.813 
-0.39 -0.61 -0.0789101 0.467256 0.00977345 0.00970571 9.71153e-06 0.00973858 1.71327e-07 272.961 
-0.43 -0.59 -0.0315347 0.807035 0.00977218 0.00969688 5.26334e-06 0.00974365 1.71522e-07 272.793 
-0.47 -0.57 -0.130612 0.469646 0.00976835 0.00970697 -4.99125e-06 0.00973697 1.71381e-07 272.829 
-0.37 -0.61 -0.151725 0.707671 0.00977555 0.00970602 1.44018e-05 0.00974032 1.71493e-07 272.745 
-0.41 -0.59 -0.0277044 0.555859 0.00977907 0.00970363 4.28173e-06 0.0097403 1.71384e-07 272.918 
-0.45 -0.57 -0.0921409 0.659056 0.00976804 0.00970106 2.88624e-06 0.00973771 1.71359e-07 272.886 
-0.49 -0.55 -0.0423545 0.648809 0.00975556 0.0097042 -5.0537e-06 0.00973301 1.71339e-07 272.785 
-0.35 -0.61 -0.14895 0.592834 0.00977142 0.00969844 1.09508e-05 0.00973217 1.7132e-07 272.792 
-0.39 -0.59 -0.0677469 0.559666 0.00977538 0.00969148 9.60223e-06 0.00973772 1.71356e-07 272.89 
-0.43 -0.57 0.045894 0.690169 0.00977111 0.00969894 5.6123e-06 0.00974013 1.71364e-07 272.946 
-0.47 -0.55 -0.16746 0.619593 0.00976456 0.00969742 7.34312e-07 0.00973835 1.71489e-07 272.697 
-0.33 -0.61 -0.381187 0.624791 0.00976783 0.00969774 1.85008e-05 0.00973503 1.71264e-07 272.961 
-0.37 -0.59 -0.147204 0.68908 0.00978073 0.0097158 2.05676e-05 0.00975027 1.7158e-07 272.886 
-0.41 -0.57 -0.0571481 0.676013 0.00976323 0.00970118 1.16666e-05 0.00973657 1.71238e-07 273.045 
-0.45 -0.55 -0.194523 0.476602 0.00976195 0.00969848 3.39561e-06 0.00972888 1.71218e-07 272.863 
-0.49 -0.53 0.0381281 0.682248 0.00976435 0.00969597 -1.67997e-06 0.00973643 1.71359e-07 272.849 
-0.35 -0.59 -0.318305 0.723202 0.00977093 0.00969353 1.6301e-05 0.00972933 1.71348e-07 272.668 
-0.39 -0.57 -0.259091 0.737084 0.00976579 0.00968455 9.21764e-06 0.00973046 1.71165e-07 272.992 
-0.43 -0.55 -0.18148 0.617182 0.00975999 0.00969376 8.77515e-06 0.00973027 1.71322e-07 272.736 
-0.47 -0.53 0.00792556 0.590423 0.00975713 0.00969859 1.73396e-06 0.00972731 1.71218e-07 272.819 
-0.29 -0.57 -0.562001 0.684265 0.0097731 0.00971407 1.86759e-05 0.00974782 1.71444e-07 273.033 
-0.33 -0.55 -0.411285 0.896075 0.00978499 0.00970851 1.00952e-05 0.00974969 1.71511e-07 272.979 
-0.29 -0.61 -0.357909 0.543948 0.00977191 0.00972069 1.01181e-05 0.00974761 1.71638e-07 272.719 
-0.33 -0.59 -0.316065 0.866522 0.00976898 0.0097026 1.42087e-05 0.00973782 1.71296e-07 272.989 
-0.27 -0.61 -0.388192 0.520403 0.00978005 0.00971095 1.63755e-05 0.00974755 1.71614e-07 272.756 
-0.31 -0.59 -0.41845 0.656305 0.00977019 0.00971072 1.06658e-05 0.00974002 1.71454e-07 272.798 
-0.29 -0.59 -0.370925 0.440439 0.00977455 0.00972094 1.14354e-05 0.00974642 1.71584e-07 272.771 
-0.33 -0.57 -0.321786 0.810745 0.00977788 0.00971128 8.8342e-06 0.00974636 1.71415e-07 273.039 
-0.27 -0.59 -0.482781 0.664283 0.00976772 0.00970227 1.39048e-05 0.00973869 1.71464e-07 272.746 
-0.31 -0.57 -0.347614 0.707516 0.0097789 0.00970717 6.98326e-06 0.00974524 1.7153e-07 272.825 
-0.27 -0.57 -0.646296 0.682072 0.0097652 0.00970289 2.57453e-05 0.00974771 1.71575e-07 272.821 
-0.31 -0.55 -0.386661 0.928384 0.00977359 0.00970767 1.94197e-05 0.0097437 1.71457e-07 272.897 
-0.29 -0.55 -0.507235 0.694562 0.00976163 0.00969622 2.38303e-05 0.00973254 1.71262e-07 272.894 
-0.33 -0.53 -0.340286 1.05267 0.0097715 0.00969553 1.45197e-05 0.00973459 1.71263e-07 272.951 
-0.27 -0.55 -0.387343 0.587664 0.00976514 0.00971027 1.99313e-05 0.00973965 1.7138e-07 272.906 
-0.31 -0.53 -0.381326 0.774009 0.00977343 0.00970375 2.47362e-05 0.00974237 1.71508e-07 272.779 
-0.29 -0.53 -0.262925 0.669546 0.00978421 0.00970152 2.02122e-05 0.00974998 1.71522e-07 272.969 
-0.33 -0.51 -0.269451 0.883312 0.00976162 0.00969087 1.51306e-05 0.0097292 1.71132e-07 273.008 
-0.27 -0.53 -0.435607 0.767442 0.00977948 0.00971208 2.26956e-05 0.00974558 1.71476e-07 272.919 
-0.31 -0.51 -0.299662 0.859976 0.00976347 0.00969907 1.62823e-05 0.00972827 1.71283e-07 272.741 
-0.29 -0.51 -0.517415 0.831589 0.00976024 0.0097012 2.39336e-05 0.00973891 1.71474e-07 272.735 
-0.27 -0.51 -0.603709 0.968637 0.00975729 0.00970473 2.86218e-05 0.00973704 1.71325e-07 272.921 
-0.33 -0.65 -0.31509 0.452328 0.00976953 0.00970495 1.88663e-05 0.00973768 1.71285e-07 273.003 
-0.31 -0.65 -0.256588 0.610111 0.00976725 0.00971253 1.5571e-05 0.00974149 1.71345e-07 273.013 
-0.29 -0.65 -0.424031 0.536463 0.00975994 0.00970522 1.48598e-05 0.00973208 1.71171e-07 273.026 
-0.33 -0.63 -0.267654 0.502619 0.00976103 0.00970724 8.93408e-06 0.00973898 1.71382e-07 272.884 
-0.27 -0.65 -0.454103 0.444787 0.00977031 0.00972461 1.08269e-05 0.00974715 1.71502e-07 272.922 
-0.31 -0.63 -0.421491 0.671501 0.00976279 0.00970527 1.83146e-05 0.00973674 1.71285e-07 272.976 
-0.25 -0.65 -0.538927 0.408565 0.00976435 0.00971793 1.33253e-05 0.00974268 1.71453e-07 272.875 
-0.29 -0.63 -0.433462 0.46299 0.00977212 0.00971962 1.26957e-05 0.0097455 1.71524e-07 272.841 
-0.27 -0.63 -0.419264 0.518784 0.0097607 0.00971595 1.36868e-05 0.00973902 1.71488e-07 272.717 
-0.31 -0.61 -0.447249 0.599239 0.00977343 0.00971077 1.22604e-05 0.00974674 1.71595e-07 272.763 
-0.49 -0.67 0.0574599 0.458359 0.00976788 0.00971981 -7.22762e-06 0.00974301 1.71505e-07 272.802 
-0.47 -0.67 0.0301607 0.426502 0.00976483 0.00972082 -1.01523e-07 0.00974337 1.71514e-07 272.798 
-0.45 -0.67 0.0953273 0.563858 0.00976257 0.00971578 4.11841e-06 0.0097459 1.71537e-07 272.832 
-0.43 -0.67 -0.0708916 0.623933 0.00976893 0.00970834 6.93786e-06 0.00974256 1.71548e-07 272.721 