ITEM: TIMESTEP
944500
ITEM: NUMBER OF CELLS
5000
ITEM: BOX BOUNDS ss ss pp
-0.5 0.5
-1 1
-0.5 0.5
ITEM: CELLS xc yc f_U[*] f_V[*] f_Tau[1] f_Tau[2] f_Tau[3] f_Press[*] f_Mrho[*] f_Ttra[*] 
-0.49 -0.99 -0.0642118 0.135193 0.00975828 0.00972567 1.62198e-05 0.00974473 1.71635e-07 272.642 
-0.47 -0.99 -0.158738 -0.0738919 0.00974428 0.00970842 1.09924e-05 0.00973252 1.71467e-07 272.569 
-0.45 -0.99 -0.157307 -0.00280079 0.00974437 0.00972647 2.34352e-06 0.00974137 1.71456e-07 272.833 
-0.49 -0.97 -0.0438563 0.143095 0.00973594 0.00971414 1.0814e-05 0.00972713 1.71273e-07 272.725 
-0.43 -0.99 -0.160121 -0.0395419 0.00973878 0.00973293 3.58477e-06 0.00974407 1.71398e-07 273.001 
-0.47 -0.97 -0.0644826 0.074945 0.00974486 0.00971347 1.32598e-05 0.00973343 1.71355e-07 272.771 
-0.41 -0.99 0.00188954 -0.0266441 0.00973415 0.00972142 5.06128e-06 0.00973158 1.71303e-07 272.803 
-0.45 -0.97 -0.10778 -0.0397639 0.00974721 0.00973295 4.44661e-06 0.00974516 1.71493e-07 272.881 
-0.49 -0.95 0.0614697 0.119628 0.0097355 0.00970329 2.77891e-06 0.00972415 1.71144e-07 272.848 
-0.39 -0.99 -0.121375 0.0473973 0.00973769 0.0097221 -2.92489e-06 0.00972707 1.71003e-07 273.154 
-0.43 -0.97 0.106759 -0.032986 0.00974833 0.00973107 4.15999e-06 0.00974457 1.71395e-07 273.021 
-0.47 -0.95 0.108362 0.129858 0.00974942 0.0097228 -9.79289e-07 0.00973325 1.71269e-07 272.904 
-0.37 -0.99 -0.187862 0.0328989 0.00973675 0.00972856 8.18573e-06 0.00973667 1.71322e-07 272.916 
-0.41 -0.97 -0.0744977 -0.0835005 0.00974299 0.00972152 7.65217e-06 0.00973389 1.71237e-07 272.973 
-0.45 -0.95 0.219273 -0.249143 0.00975195 0.00973527 7.08964e-06 0.00974742 1.71554e-07 272.846 
-0.49 -0.93 -0.00261361 0.0206421 0.00976931 0.00971699 7.06303e-07 0.00974384 1.71434e-07 272.938 
-0.35 -0.99 -0.0442068 -0.154179 0.00972685 0.00970242 1.10952e-05 0.00971538 1.70883e-07 273.018 
-0.39 -0.97 0.0911016 0.0366496 0.00973195 0.0097182 9.31698e-06 0.00973324 1.71283e-07 272.881 
-0.43 -0.95 0.160526 -0.0142948 0.00975449 0.00972149 1.12398e-05 0.00974223 1.71447e-07 272.872 
-0.47 -0.93 0.0937666 -0.0119366 0.00975962 0.00971547 -8.73111e-07 0.00973772 1.71385e-07 272.844 
-0.33 -0.99 0.0548815 0.013262 0.00973539 0.00972694 3.93653e-06 0.00972923 1.71186e-07 272.923 
-0.37 -0.97 0.0740944 -0.00996239 0.00973363 0.00972802 2.11709e-06 0.00973751 1.71369e-07 272.865 
-0.41 -0.95 -0.0299887 0.0639182 0.00975105 0.00972648 6.05091e-06 0.00973989 1.71403e-07 272.876 
-0.45 -0.93 -0.013149 0.0264659 0.00975568 0.0097286 6.14038e-06 0.00974228 1.71551e-07 272.708 
-0.49 -0.91 0.0739807 0.107051 0.00976606 0.00972477 1.14522e-05 0.00974243 1.71251e-07 273.189 
-0.35 -0.97 -0.0330221 -0.115201 0.00973399 0.009708 6.45154e-06 0.00972241 1.71027e-07 272.985 
-0.39 -0.95 -0.135847 -0.0198294 0.0097505 0.00972428 5.77814e-06 0.00973861 1.71495e-07 272.694 
-0.43 -0.93 -0.136273 0.0106043 0.0097539 0.00971905 6.01792e-06 0.00973007 1.71203e-07 272.92 
-0.47 -0.91 -0.258029 -0.0350587 0.0097592 0.00971368 4.7946e-06 0.00973543 1.71357e-07 272.824 
-0.33 -0.97 -0.114883 -0.0570799 0.00973642 0.00972448 3.05725e-06 0.00973637 1.71348e-07 272.866 
-0.37 -0.95 -0.134471 -0.00318116 0.00975025 0.00971851 1.38298e-05 0.00973967 1.71331e-07 272.984 
-0.41 -0.93 -0.081453 0.0580315 0.00975616 0.00973033 1.62831e-05 0.00973417 1.71309e-07 272.865 
-0.45 -0.91 -0.0904947 0.0014959 0.00976386 0.00972325 7.13255e-06 0.00974637 1.71487e-07 272.924 
-0.49 -0.89 -0.0995118 0.134302 0.00976238 0.00972341 9.39405e-06 0.00974614 1.71444e-07 272.986 
-0.35 -0.95 -0.11118 -0.101522 0.00975401 0.00971678 3.3032e-06 0.00973824 1.71383e-07 272.862 
-0.39 -0.93 -0.0517435 -0.068827 0.00975029 0.00972325 8.56765e-06 0.00973627 1.71501e-07 272.62 
-0.43 -0.91 -0.150183 -0.0381439 0.0097547 0.00972302 1.09285e-05 0.00973633 1.71171e-07 273.147 
-0.47 -0.89 0.120112 0.111569 0.00975783 0.00972253 1.1688e-05 0.00974243 1.71476e-07 272.831 
-0.37 -0.93 0.00127564 0.0590074 0.00975531 0.00972027 -6.03219e-07 0.00974286 1.71318e-07 273.094 
-0.41 -0.91 -0.0640029 0.079126 0.00976416 0.00971953 5.38549e-06 0.00973961 1.71413e-07 272.852 
-0.45 -0.89 -0.193558 0.0938514 0.00975248 0.00971468 -1.31471e-06 0.00973907 1.71306e-07 273.008 
-0.49 -0.87 -0.0600034 0.168112 0.00974301 0.00971145 -2.41378e-06 0.00972677 1.71277e-07 272.71 
-0.35 -0.93 -0.304326 0.0316511 0.00975853 0.00972046 2.19949e-06 0.00973381 1.71412e-07 272.692 
-0.39 -0.91 -0.158992 -0.0147512 0.00977408 0.00973338 1.3381e-05 0.00975603 1.71721e-07 272.822 
-0.43 -0.89 -0.237591 -0.0632675 0.00976822 0.00973105 4.02854e-06 0.0097522 1.71464e-07 273.124 
-0.47 -0.87 0.0632795 0.119102 0.00975597 0.00972479 3.15679e-06 0.00973872 1.71457e-07 272.758 
-0.37 -0.91 -0.22334 0.157573 0.0097572 0.00972905 6.23975e-06 0.00974152 1.71646e-07 272.537 
-0.41 -0.89 -0.141246 0.0661886 0.00976264 0.00971398 2.71896e-06 0.00974235 1.71483e-07 272.817 
-0.45 -0.87 -0.106342 0.17881 0.00976092 0.00971606 8.27345e-06 0.00974774 1.7147e-07 272.99 
-0.49 -0.85 -0.00267863 0.179616 0.00974916 0.00971435 -7.01931e-07 0.0097283 1.71236e-07 272.817 
-0.35 -0.91 -0.0857181 0.155507 0.00974934 0.00971677 2.07975e-06 0.00973136 1.71317e-07 272.775 
-0.39 -0.89 -0.0922638 0.0864178 0.0097587 0.00971956 1.27437e-05 0.00974321 1.71447e-07 272.9 
-0.43 -0.87 -0.0763305 -0.0299521 0.00974232 0.00972922 8.0497e-06 0.00974341 1.71464e-07 272.878 
-0.47 -0.85 -0.167864 0.21611 0.00974913 0.00972202 2.40642e-06 0.00974138 1.71419e-07 272.892 
-0.33 -0.91 -0.169345 -0.159392 0.00974932 0.00971246 9.82093e-06 0.00973287 1.71334e-07 272.79 
-0.37 -0.89 -0.189739 0.0751366 0.00976842 0.00974305 1.72296e-05 0.00975853 1.71576e-07 273.123 
-0.41 -0.87 -0.173817 0.0192633 0.00974704 0.00971781 7.60398e-06 0.00973417 1.71419e-07 272.691 
-0.45 -0.85 -0.0348932 0.131379 0.00974886 0.00970859 6.94624e-06 0.00973446 1.71372e-07 272.773 
-0.35 -0.89 -0.336245 0.146506 0.00976495 0.0097127 1.24974e-05 0.00972886 1.71214e-07 272.869 
-0.39 -0.87 -0.151882 0.0439645 0.0097545 0.00971717 3.30426e-06 0.00973726 1.71509e-07 272.635 
-0.43 -0.85 -0.0909807 0.0397473 0.00976687 0.00973419 2.76491e-06 0.00974636 1.71583e-07 272.771 
-0.37 -0.87 -0.192391 0.210726 0.00976414 0.00973302 8.44797e-06 0.00974897 1.71545e-07 272.905 
-0.41 -0.85 -0.101067 0.0302746 0.00976237 0.00971608 6.68271e-06 0.0097423 1.71572e-07 272.674 
-0.35 -0.87 -0.204983 0.204973 0.0097692 0.00972126 1.10124e-05 0.00973909 1.71297e-07 273.022 
-0.39 -0.85 -0.300029 0.291575 0.00976341 0.0097237 -1.44881e-06 0.00974683 1.71589e-07 272.776 
-0.33 -0.87 -0.480961 0.0248388 0.00977343 0.009722 8.87535e-06 0.00974522 1.71392e-07 273.043 
-0.37 -0.85 -0.446777 0.0588495 0.00976194 0.00972209 3.79824e-06 0.00974486 1.71429e-07 272.975 
-0.35 -0.85 -0.344538 0.270744 0.00976378 0.00972278 1.07031e-05 0.00974057 1.71169e-07 273.269 
-0.33 -0.85 -0.453668 0.311102 0.0097596 0.00972139 9.86575e-06 0.00973533 1.7122e-07 273.041 
-0.31 -0.99 0.0648477 0.00721318 0.00972872 0.00970725 1.37614e-05 0.00972143 1.7115e-07 272.762 
-0.29 -0.99 -0.094046 0.170189 0.00972947 0.00971644 1.31103e-05 0.00972617 1.71183e-07 272.843 
-0.27 -0.99 -0.150166 -0.119238 0.00974657 0.00973329 7.94804e-06 0.00973695 1.7111e-07 273.262 
-0.31 -0.97 -0.284995 -0.0387182 0.00974809 0.00971257 5.04395e-06 0.00973517 1.71275e-07 272.947 
-0.29 -0.97 -0.242716 0.263329 0.00976063 0.00971673 9.02118e-06 0.00974881 1.71584e-07 272.837 
-0.33 -0.95 -0.114624 0.0991748 0.00975341 0.00972046 6.1159e-06 0.009737 1.71287e-07 272.981 
-0.27 -0.97 -0.162859 -0.0682488 0.00975284 0.00972855 1.01713e-05 0.00974447 1.71474e-07 272.891 
-0.31 -0.95 -0.196422 0.140883 0.00974847 0.00971533 1.57845e-06 0.00973325 1.71306e-07 272.845 
-0.29 -0.95 -0.114421 -0.0563237 0.00974347 0.00970486 6.393e-06 0.00972302 1.71242e-07 272.661 
-0.33 -0.93 -0.320395 0.0774373 0.00976165 0.00971788 2.9348e-06 0.00973561 1.71298e-07 272.924 
-0.27 -0.95 -0.24029 0.058381 0.00975011 0.0097353 6.58487e-06 0.00974148 1.71426e-07 272.884 
-0.31 -0.93 -0.112401 0.0315955 0.00975886 0.00971279 9.15341e-06 0.00973687 1.71537e-07 272.579 
-0.29 -0.93 -0.300026 0.0739276 0.0097576 0.0097076 6.58394e-06 0.00973262 1.71471e-07 272.564 
-0.27 -0.93 -0.142651 0.0281086 0.00976322 0.00973029 6.14558e-06 0.00974994 1.71629e-07 272.799 
-0.31 -0.91 -0.219176 0.240214 0.00975456 0.00971178 6.57534e-06 0.0097369 1.71396e-07 272.804 
-0.29 -0.91 -0.265137 0.0366214 0.00975438 0.00971273 -3.18341e-07 0.00973094 1.71316e-07 272.765 
-0.33 -0.89 -0.288318 -0.104728 0.0097573 0.0097202 5.8055e-06 0.00973762 1.71264e-07 273.035 
-0.27 -0.91 -0.185682 -0.0555552 0.0097543 0.00972221 3.56275e-06 0.00972988 1.7146e-07 272.506 
-0.31 -0.89 -0.265635 0.201641 0.00976259 0.00971156 1.20365e-06 0.00974522 1.71555e-07 272.784 
-0.29 -0.89 -0.161124 -0.0822903 0.0097634 0.00971457 2.91185e-06 0.00974213 1.71334e-07 273.048 
-0.27 -0.89 -0.302894 0.174921 0.0097549 0.00971611 1.22896e-05 0.00974283 1.71485e-07 272.828 
-0.31 -0.87 -0.488706 0.0136061 0.00976103 0.00971776 5.43258e-06 0.00973831 1.71407e-07 272.825 
-0.29 -0.87 -0.352495 -0.0527293 0.00974758 0.00970471 9.70694e-06 0.00973106 1.71195e-07 272.961 
-0.27 -0.87 -0.375239 0.281341 0.00974614 0.00971684 1.12472e-05 0.00973643 1.71395e-07 272.793 
-0.31 -0.85 -0.465584 -0.196788 0.00975563 0.00971715 2.08468e-05 0.00973733 1.71401e-07 272.807 
-0.29 -0.85 -0.331082 -0.0140341 0.00974996 0.00970431 1.36379e-05 0.00974136 1.71443e-07 272.853 
-0.27 -0.85 -0.458158 0.274427 0.00975048 0.00971586 7.53088e-06 0.00974034 1.71232e-07 273.162 
-0.25 -0.99 -0.239005 0.0919823 0.00974687 0.00974213 1.18636e-05 0.00974528 1.71402e-07 273.03 
-0.25 -0.97 -0.094435 0.167875 0.00975216 0.00973882 4.65249e-06 0.00974777 1.71602e-07 272.78 
-0.25 -0.95 -0.353712 0.0999756 0.00974573 0.00973994 9.54568e-06 0.00974405 1.71491e-07 272.854 
-0.25 -0.93 0.00460428 0.0887534 0.00976152 0.00973873 1.41728e-05 0.00974732 1.7164e-07 272.708 
-0.25 -0.91 -0.354039 0.048013 0.00975584 0.00972771 1.28345e-05 0.00974137 1.71482e-07 272.793 
-0.25 -0.89 -0.410156 0.172231 0.00975213 0.0097209 1.22514e-05 0.00973808 1.71282e-07 273.018 
-0.25 -0.87 -0.416153 0.188578 0.00974377 0.00971206 1.76111e-05 0.0097348 1.71214e-07 273.035 
-0.25 -0.85 -0.416262 0.301678 0.00975921 0.00971526 9.60218e-06 0.00974517 1.7132e-07 273.156 
-0.25 -0.83 -0.43113 0.143676 0.00975345 0.00970607 4.87314e-06 0.00974188 1.71244e-07 273.185 
-0.33 -0.81 -0.0762251 0.119754 0.00975879 0.00970788 1.05042e-05 0.00973003 1.71293e-07 272.775 
-0.31 -0.81 -0.301189 0.173134 0.00977605 0.00971577 1.31592e-05 0.00974523 1.71303e-07 273.185 
-0.29 -0.81 -0.334634 0.136145 0.00978018 0.00972096 7.78814e-06 0.00975299 1.71408e-07 273.236 
-0.27 -0.81 -0.398245 0.303976 0.00977668 0.00972336 1.01344e-05 0.00975718 1.71541e-07 273.141 
-0.31 -0.79 -0.302261 0.114652 0.00975592 0.00971165 3.05973e-06 0.00973408 1.71401e-07 272.717 
-0.29 -0.79 -0.423236 0.479865 0.00975812 0.00971832 5.88153e-06 0.00973389 1.71412e-07 272.693 
-0.33 -0.77 -0.384212 0.247658 0.00977253 0.00972061 1.39982e-05 0.0097469 1.71399e-07 273.079 
-0.27 -0.79 -0.597787 0.206967 0.00975969 0.00971388 1.52918e-05 0.00973794 1.71437e-07 272.768 
-0.31 -0.77 -0.320416 0.194761 0.00975812 0.00970158 1.01336e-05 0.00973064 1.71291e-07 272.796 
-0.29 -0.77 -0.307184 0.436818 0.00975602 0.00972099 8.70607e-06 0.00973881 1.71588e-07 272.553 
-0.27 -0.77 -0.343572 0.364636 0.00975554 0.00970616 6.50314e-06 0.00973419 1.71328e-07 272.836 
-0.31 -0.75 -0.206972 0.339571 0.00976042 0.00971523 8.80968e-06 0.00974705 1.71553e-07 272.837 
-0.29 -0.75 -0.50508 0.461463 0.00976052 0.00971473 1.1642e-05 0.00974269 1.71482e-07 272.829 
-0.27 -0.75 -0.54166 0.642401 0.0097608 0.00970943 1.32391e-05 0.00973496 1.71302e-07 272.899 
-0.49 -0.83 -0.0783762 0.265617 0.00975662 0.00972059 2.85614e-06 0.00973722 1.71472e-07 272.691 
-0.47 -0.83 -0.090592 0.19695 0.0097569 0.0097147 3.00944e-06 0.00973744 1.7166e-07 272.4 
-0.45 -0.83 -0.127787 0.157899 0.00975625 0.00972059 -1.35431e-06 0.00974186 1.7151e-07 272.761 
-0.49 -0.81 0.0458342 0.279974 0.00976015 0.00972219 -1.81462e-06 0.00974211 1.71486e-07 272.807 
-0.43 -0.83 -0.0949679 0.0306217 0.00974651 0.00971672 2.05465e-06 0.00973239 1.71472e-07 272.556 
-0.47 -0.81 -0.0176151 0.195072 0.00976127 0.00971755 6.27511e-07 0.00974757 1.71556e-07 272.848 
-0.45 -0.81 0.0403095 0.148651 0.00976735 0.00971959 3.50652e-06 0.00974631 1.71682e-07 272.612 
-0.49 -0.79 -0.0131963 0.379099 0.00975415 0.00971906 2.40291e-06 0.00973614 1.71324e-07 272.897 
-0.43 -0.81 -0.068056 0.181515 0.00977084 0.0097165 2.82709e-07 0.00974956 1.71865e-07 272.414 
-0.47 -0.79 0.0437568 0.026878 0.00975194 0.00971518 -5.30451e-06 0.00973797 1.71358e-07 272.894 
-0.41 -0.81 -0.277651 0.278668 0.00976321 0.00971992 9.3456e-06 0.00974765 1.71567e-07 272.832 
-0.45 -0.79 0.0253917 0.300661 0.00975497 0.00972096 -2.7768e-06 0.0097393 1.71439e-07 272.803 
-0.49 -0.77 0.0898243 0.204892 0.0097504 0.00971646 2.18813e-06 0.00973506 1.71219e-07 273.034 
-0.39 -0.81 -0.316078 0.184101 0.00975191 0.00972463 1.33929e-05 0.00974679 1.71542e-07 272.849 
-0.43 -0.79 -0.321161 0.3676 0.0097593 0.009708 3.79518e-06 0.00973779 1.71459e-07 272.728 
-0.47 -0.77 0.0124444 0.26863 0.00975008 0.00972152 -3.00146e-06 0.00973529 1.71344e-07 272.842 
-0.37 -0.81 -0.0691229 0.290988 0.00975297 0.00971569 7.43466e-06 0.00973551 1.71523e-07 272.563 
-0.41 -0.79 -0.4041 0.375925 0.00976125 0.00971921 9.43065e-06 0.00974508 1.71713e-07 272.529 
-0.45 -0.77 -0.307248 0.491047 0.00975014 0.00971903 -2.63973e-06 0.00973473 1.71389e-07 272.754 
-0.35 -0.81 0.0181932 0.207491 0.00974448 0.00971551 2.38992e-06 0.00973441 1.71392e-07 272.74 
-0.39 -0.79 -0.256848 0.0751161 0.00976736 0.00972543 7.37798e-06 0.0097489 1.71761e-07 272.559 
-0.43 -0.77 -0.325971 0.509213 0.00974272 0.00970136 2.52481e-06 0.00972226 1.71303e-07 272.542 
-0.37 -0.79 -0.341128 0.21514 0.00977034 0.00971648 8.8467e-06 0.00974732 1.71556e-07 272.842 
-0.41 -0.77 -0.393793 0.141052 0.00974894 0.00971751 4.92128e-06 0.00973793 1.71543e-07 272.598 
-0.35 -0.79 -0.26435 0.142167 0.00976656 0.0097163 1.43652e-05 0.0097437 1.71627e-07 272.627 
-0.39 -0.77 -0.172647 0.117902 0.00974977 0.00972289 7.32355e-06 0.00974654 1.71614e-07 272.726 
-0.43 -0.75 0.0544357 0.323493 0.00976394 0.00971066 -4.06816e-06 0.009739 1.71432e-07 272.805 
-0.33 -0.79 -0.244671 0.271572 0.00975615 0.00971144 -4.68119e-07 0.0097291 1.71387e-07 272.6 
-0.37 -0.77 -0.105517 0.233555 0.00975922 0.00971461 4.5259e-06 0.00974153 1.71524e-07 272.729 
-0.41 -0.75 0.00834475 0.380478 0.00976556 0.00970607 1.99027e-06 0.00974554 1.71636e-07 272.664 
-0.35 -0.77 -0.363136 0.306786 0.00977195 0.00972187 5.66324e-06 0.00974804 1.71399e-07 273.112 
-0.39 -0.75 -0.271472 0.15323 0.00977105 0.00972275 3.19181e-06 0.0097504 1.71609e-07 272.843 
-0.49 -0.75 -0.0479054 0.196509 0.00974944 0.00972173 4.14236e-06 0.0097369 1.71136e-07 273.219 
-0.47 -0.75 -0.0836883 0.387099 0.00975041 0.0097295 -6.72546e-07 0.0097343 1.71205e-07 273.035 
-0.45 -0.75 -0.0894745 0.632132 0.00974972 0.00970332 -5.6605e-06 0.00972289 1.71241e-07 272.658 
-0.49 -0.73 -0.0366601 0.369599 0.00977173 0.00971781 4.37871e-06 0.00974539 1.71322e-07 273.16 
-0.47 -0.73 -0.232916 0.362218 0.0097699 0.00974036 2.62975e-06 0.00975073 1.71348e-07 273.268 
-0.45 -0.73 -0.156014 0.408638 0.00976732 0.00970743 -9.4538e-06 0.00973772 1.71462e-07 272.722 
-0.49 -0.71 -0.103189 0.518231 0.00977594 0.00972038 -1.67741e-07 0.00974304 1.71426e-07 272.927 
-0.43 -0.73 -0.0187343 0.40378 0.00975661 0.00970474 -4.86431e-06 0.00973381 1.71417e-07 272.684 
-0.47 -0.71 -0.16244 0.465904 0.00977864 0.00973481 -7.2847e-07 0.00975497 1.71588e-07 273.003 
-0.37 -0.75 -0.28509 0.178743 0.00975885 0.00971729 9.11209e-06 0.00974127 1.71543e-07 272.693 
-0.41 -0.73 -0.00203622 0.379957 0.00975924 0.00970325 -3.46794e-06 0.00973893 1.71605e-07 272.529 
-0.45 -0.71 0.0294113 0.134819 0.00977179 0.00971785 4.6031e-06 0.00974709 1.71583e-07 272.791 
-0.49 -0.69 0.0124115 0.510076 0.00977584 0.0097154 -6.64531e-06 0.00974511 1.71485e-07 272.893 
-0.35 -0.75 -0.0747734 0.284949 0.00974911 0.00971626 8.93413e-06 0.00973644 1.71396e-07 272.791 
-0.39 -0.73 0.0336606 0.159939 0.00975944 0.0097102 9.14128e-06 0.00974007 1.71338e-07 272.985 
-0.43 -0.71 -0.0707727 0.317926 0.00976504 0.00970476 6.90369e-07 0.00974018 1.71522e-07 272.695 
-0.47 -0.69 0.138013 0.377303 0.00977607 0.0097235 4.22525e-06 0.00974999 1.71479e-07 273.038 
-0.37 -0.73 -0.120094 0.258407 0.00976752 0.00972245 8.63348e-06 0.00974802 1.71581e-07 272.82 
-0.41 -0.71 0.0939246 0.511232 0.00976329 0.00969233 -1.49349e-06 0.00973167 1.71558e-07 272.399 
-0.45 -0.69 -0.0851941 0.296786 0.00978686 0.00972197 9.30341e-06 0.00975771 1.71789e-07 272.762 
-0.35 -0.73 -0.421322 0.423516 0.00976598 0.00971494 9.38516e-06 0.009748 1.71569e-07 272.839 
-0.39 -0.71 -0.0738669 0.202691 0.00976976 0.00971313 -1.06641e-06 0.00974004 1.71506e-07 272.717 
-0.43 -0.69 -0.182877 0.418084 0.00978353 0.00971271 4.63123e-06 0.00975647 1.71903e-07 272.546 
-0.33 -0.73 -0.399427 0.121523 0.00976541 0.00970487 1.38062e-05 0.00973716 1.71528e-07 272.601 
-0.37 -0.71 0.00195314 0.355308 0.0097671 0.00971588 1.26611e-05 0.00974754 1.71629e-07 272.732 
-0.41 -0.69 -0.129626 0.275199 0.00977597 0.00970024 -2.06137e-07 0.00973817 1.71615e-07 272.492 
-0.35 -0.71 -0.214288 0.625823 0.00976386 0.00970675 4.84093e-06 0.00974816 1.71655e-07 272.707 
-0.39 -0.69 -0.0307412 0.361707 0.00976278 0.00970008 8.17019e-06 0.00973288 1.71451e-07 272.604 
-0.37 -0.69 -0.31432 0.440106 0.00976598 0.00971171 7.92975e-06 0.00974255 1.71434e-07 272.901 
-0.35 -0.69 -0.270158 0.754487 0.0097691 0.00970882 1.14987e-05 0.00974111 1.71439e-07 272.854 
-0.35 -0.67 -0.185764 0.635848 0.00977435 0.00972279 9.33336e-06 0.00974763 1.71495e-07 272.947 
-0.33 -0.67 -0.226702 0.653757 0.00975813 0.0097027 2.37522e-06 0.00974262 1.7151e-07 272.782 
-0.33 -0.75 -0.0628122 0.201098 0.00974908 0.0097085 8.63217e-06 0.00973108 1.71322e-07 272.758 
-0.31 -0.73 -0.414372 0.500577 0.00976346 0.00972432 8.21699e-06 0.00974647 1.71524e-07 272.867 
-0.29 -0.73 -0.334456 0.618324 0.00976648 0.00970255 6.93626e-06 0.00974251 1.71349e-07 273.035 
-0.33 -0.71 -0.532598 0.175457 0.00976565 0.00971154 1.42619e-05 0.00974366 1.71556e-07 272.738 
-0.27 -0.73 -0.486184 0.585726 0.00976674 0.00972069 1.26215e-05 0.0097513 1.71417e-07 273.175 
-0.31 -0.71 -0.412937 0.38803 0.00976703 0.00972551 9.42965e-06 0.00975015 1.7162e-07 272.818 
-0.29 -0.71 -0.427698 0.572359 0.00976209 0.00970109 1.23179e-05 0.00973959 1.71277e-07 273.069 
-0.33 -0.69 -0.318787 0.356911 0.00978032 0.00971036 -2.10364e-06 0.00975303 1.71807e-07 272.602 
-0.27 -0.71 -0.423826 0.648608 0.00976624 0.00971116 8.38978e-06 0.00974013 1.71264e-07 273.105 
-0.31 -0.69 -0.534095 0.337443 0.00978391 0.00972394 1.09989e-05 0.00976277 1.71787e-07 272.907 
-0.29 -0.69 -0.593435 0.70136 0.00977897 0.00970738 1.26558e-05 0.00974712 1.71494e-07 272.933 
-0.27 -0.69 -0.436256 0.443779 0.00978165 0.00971072 8.00383e-06 0.00974944 1.71314e-07 273.286 
-0.31 -0.67 -0.4661 0.498076 0.00975482 0.00971088 9.29959e-06 0.0097362 1.71469e-07 272.668 
-0.29 -0.67 -0.463558 0.509451 0.00976215 0.0097149 1.03637e-05 0.00974485 1.71447e-07 272.946 
-0.41 -0.83 -0.129106 0.218903 0.00975824 0.00972362 2.52788e-06 0.00974238 1.71555e-07 272.705 
-0.39 -0.83 -0.164963 0.354224 0.00975487 0.00972668 2.16602e-06 0.00973791 1.71462e-07 272.727 
-0.37 -0.83 -0.2307 0.299033 0.00974606 0.00971378 4.86567e-06 0.00973245 1.71262e-07 272.893 
-0.35 -0.83 -0.379205 0.104815 0.00975174 0.00972091 1.32962e-05 0.00973393 1.71272e-07 272.918 
-0.33 -0.83 -0.181227 0.236589 0.00974975 0.00971344 1.53044e-05 0.0097312 1.71129e-07 273.07 
-0.31 -0.83 -0.112398 -0.284583 0.00974647 0.00970947 1.47703e-05 0.00973695 1.71394e-07 272.808 
-0.29 -0.83 -0.405958 0.170694 0.00975483 0.00971863 1.78451e-05 0.00974639 1.71297e-07 273.228 
-0.27 -0.83 -0.47858 0.362345 0.00975506 0.00972196 5.21899e-06 0.00974922 1.71291e-07 273.317 
-0.27 -0.67 -0.494916 0.487723 0.00975164 0.00971216 1.46916e-05 0.00973912 1.71317e-07 272.992 
-0.25 -0.67 -0.418318 0.517568 0.00976127 0.00971913 5.37067e-06 0.0097515 1.71475e-07 273.087 
-0.25 -0.81 -0.456968 0.240963 0.00976486 0.00971186 5.94625e-06 0.00974698 1.71464e-07 272.978 
-0.25 -0.79 -0.537935 0.223187 0.00976544 0.00972469 1.81679e-05 0.00974869 1.71421e-07 273.095 
-0.35 -0.55 -0.290831 0.700503 0.00978507 0.00971547 6.31275e-06 0.00974946 1.71516e-07 272.965 
-0.39 -0.53 -0.104827 1.02952 0.00978006 0.00969042 3.70489e-06 0.00974482 1.71485e-07 272.884 
-0.37 -0.57 -0.359593 0.611499 0.00977697 0.00970144 6.13028e-06 0.00974453 1.7138e-07 273.043 
-0.41 -0.55 -0.0824143 0.975773 0.00976095 0.00970031 7.20553e-07 0.00973482 1.71524e-07 272.542 
-0.45 -0.53 0.0102985 0.693591 0.00976434 0.00969618 -1.35129e-06 0.00972871 1.7135e-07 272.647 
-0.35 -0.57 -0.333087 0.665164 0.00978123 0.00970757 2.07181e-05 0.00974441 1.71521e-07 272.815 
-0.39 -0.55 -0.132134 0.887781 0.00976498 0.00969357 3.73758e-06 0.00974454 1.71469e-07 272.901 
-0.43 -0.53 -0.142098 0.704548 0.00977604 0.00969702 3.91309e-06 0.00973649 1.71575e-07 272.507 
-0.47 -0.51 -0.191914 0.687174 0.00977116 0.00969655 -2.64597e-06 0.00973272 1.71563e-07 272.421 
-0.37 -0.55 -0.273704 0.704827 0.00976402 0.00968492 5.6394e-06 0.00973242 1.7116e-07 273.055 
-0.41 -0.53 -0.123554 0.816962 0.00978212 0.00970212 -4.26064e-06 0.00974479 1.71546e-07 272.786 
-0.45 -0.51 -0.329527 0.771988 0.00977124 0.00969262 1.79637e-06 0.00973544 1.71512e-07 272.579 
-0.37 -0.53 -0.128999 0.76625 0.00978044 0.00969259 -5.60516e-07 0.00973985 1.71466e-07 272.775 
-0.41 -0.51 -0.310156 0.80309 0.00976143 0.00969512 -8.20762e-09 0.00973343 1.71444e-07 272.63 
-0.35 -0.53 -0.3052 0.77046 0.00976815 0.00970268 1.01995e-05 0.00973651 1.71418e-07 272.758 
-0.39 -0.51 -0.357623 0.927272 0.00976698 0.00969011 1.38545e-06 0.00973196 1.71427e-07 272.617 
-0.37 -0.51 -0.391519 0.932345 0.00976305 0.00968517 8.69877e-06 0.00972673 1.71275e-07 272.712 
-0.35 -0.51 -0.456934 0.795968 0.009764 0.00969988 9.59834e-06 0.0097291 1.71332e-07 272.687 
-0.49 -0.65 0.110845 0.365365 0.00977405 0.0097181 1.03565e-05 0.00974577 1.71482e-07 272.916 
-0.47 -0.65 -0.0444674 0.433152 0.00977177 0.00972001 3.48669e-06 0.00974797 1.71612e-07 272.771 
-0.45 -0.65 -0.0174961 0.522375 0.00976524 0.00972076 7.08116e-06 0.00974632 1.71718e-07 272.556 
-0.49 -0.63 -0.0465589 0.352788 0.0097608 0.00972303 3.27242e-06 0.00974977 1.71817e-07 272.496 
-0.43 -0.65 0.0546567 0.676005 0.00975731 0.00969627 4.25038e-06 0.00973411 1.71464e-07 272.618 
-0.47 -0.63 -0.0100507 0.470743 0.00976559 0.009715 -1.02563e-06 0.00974367 1.717e-07 272.51 
-0.41 -0.65 -0.00711076 0.41066 0.00976648 0.00970431 1.08255e-05 0.00974031 1.71436e-07 272.835 
-0.45 -0.63 -0.051945 0.545428 0.00977507 0.0097174 8.62446e-06 0.0097489 1.71667e-07 272.708 
-0.49 -0.61 -0.0718969 0.497879 0.00976843 0.00971954 -9.15243e-06 0.00974973 1.7163e-07 272.791 
-0.39 -0.65 -0.19108 0.377125 0.00976023 0.0097151 7.5833e-06 0.00974381 1.71378e-07 273.027 
-0.43 -0.63 -0.191624 0.600691 0.00978169 0.00970651 7.78094e-06 0.00974168 1.71379e-07 272.965 
-0.47 -0.61 -0.290093 0.47901 0.0097674 0.00971183 3.66552e-06 0.00974379 1.71535e-07 272.775 
-0.37 -0.65 -0.384287 0.586338 0.00976154 0.00969784 -2.30121e-06 0.00973193 1.71264e-07 272.875 
-0.41 -0.63 -0.288929 0.56276 0.00977304 0.0096905 2.91988e-06 0.00973446 1.71405e-07 272.721 
-0.45 -0.61 -0.307917 0.627122 0.00976611 0.00971193 -8.51135e-06 0.00973888 1.71387e-07 272.874 
-0.49 -0.59 -0.0997583 0.56375 0.00977563 0.00970736 -6.31661e-06 0.00975012 1.71678e-07 272.726 
-0.35 -0.65 -0.375671 0.543671 0.00977143 0.009723 7.63429e-06 0.0097488 1.71601e-07 272.81 
-0.39 -0.63 -0.27409 0.650407 0.00978522 0.00972129 1.00626e-05 0.00975032 1.71593e-07 272.865 
-0.43 -0.61 -0.170729 0.750095 0.0097786 0.0097015 6.70199e-06 0.00974052 1.71353e-07 272.973 
-0.47 -0.59 -0.0290685 0.634827 0.00978429 0.00971703 -5.78502e-06 0.00975474 1.71675e-07 272.859 
-0.37 -0.63 -0.469874 0.57847 0.0097686 0.00970056 8.15875e-06 0.00973569 1.71397e-07 272.768 
-0.41 -0.61 -0.376824 0.544695 0.00978148 0.00970836 8.09071e-06 0.00974214 1.71381e-07 272.975 
-0.45 -0.59 -0.0825002 0.431006 0.00978369 0.00971238 -1.28078e-06 0.00975159 1.71651e-07 272.809 
-0.49 -0.57 0.0134549 0.522062 0.00978449 0.00970636 -8.3198e-06 0.00974287 1.71527e-07 272.762 
-0.35 -0.63 -0.494313 0.577234 0.00976043 0.0097063 7.48292e-06 0.00973502 1.71363e-07 272.804 
-0.39 -0.61 -0.294667 0.441887 0.00977849 0.00970346 4.05608e-06 0.00973877 1.7139e-07 272.865 
-0.43 -0.59 -0.0696706 0.823098 0.00977224 0.00969057 2.17346e-06 0.00974034 1.71549e-07 272.656 
-0.47 -0.57 0.03573 0.629676 0.00977435 0.00971535 -6.22123e-06 0.00974122 1.71488e-07 272.778 
-0.37 -0.61 -0.179058 0.724055 0.00978251 0.0097081 1.5439e-05 0.00974318 1.71579e-07 272.689 
-0.41 -0.59 0.014238 0.590276 0.00977868 0.00970864 8.82624e-07 0.00974352 1.71501e-07 272.822 
-0.45 -0.57 -0.0118676 0.639845 0.0097724 0.00970183 3.20317e-06 0.00973786 1.71354e-07 272.897 
-0.49 -0.55 0.00582693 0.516838 0.00976169 0.0097031 -6.76727e-06 0.00973546 1.71434e-07 272.703 
-0.35 -0.61 -0.119676 0.559111 0.00977522 0.00970344 9.19685e-06 0.00973663 1.71387e-07 272.811 
-0.39 -0.59 -0.115377 0.531021 0.00977475 0.00968718 8.698e-06 0.00973588 1.71376e-07 272.807 
-0.43 -0.57 0.0550981 0.620881 0.00977519 0.00969336 9.13764e-08 0.00974062 1.71379e-07 272.935 
-0.47 -0.55 -0.0126784 0.80189 0.00977303 0.00970222 4.95635e-07 0.00974342 1.71619e-07 272.631 
-0.33 -0.61 -0.386341 0.62829 0.00977128 0.00970068 1.60551e-05 0.0097402 1.71274e-07 273.091 
-0.37 -0.59 -0.199166 0.579729 0.00977764 0.0097173 1.81242e-05 0.00974762 1.71592e-07 272.793 
-0.41 -0.57 -0.0720812 0.740901 0.00977098 0.00970133 1.33705e-05 0.00973847 1.71379e-07 272.875 
-0.45 -0.55 -0.0757642 0.476275 0.00976748 0.00970056 4.64651e-06 0.0097298 1.71305e-07 272.75 
-0.49 -0.53 0.0308455 0.534389 0.00976068 0.0096972 -3.48213e-06 0.00973368 1.71416e-07 272.682 
-0.35 -0.59 -0.378453 0.672821 0.00977358 0.00970122 1.44974e-05 0.00973348 1.71464e-07 272.599 
-0.39 -0.57 -0.383632 0.800038 0.00977179 0.00968833 3.24011e-06 0.00973929 1.71406e-07 272.855 
-0.43 -0.55 -0.0787008 0.590275 0.00976152 0.00969032 7.21958e-06 0.00972958 1.71378e-07 272.628 
-0.47 -0.53 0.0103285 0.62409 0.00975626 0.00969649 -8.72691e-07 0.00972572 1.71323e-07 272.606 
-0.29 -0.57 -0.578343 0.581542 0.0097719 0.00970542 1.91171e-05 0.00974001 1.71352e-07 272.961 
-0.33 -0.55 -0.525766 0.885872 0.00978831 0.00971383 1.1363e-05 0.00975076 1.71568e-07 272.919 
-0.29 -0.61 -0.376069 0.737934 0.00976438 0.00971803 5.75459e-06 0.0097435 1.71575e-07 272.704 
-0.33 -0.59 -0.364869 0.957441 0.00977159 0.00970331 1.24547e-05 0.0097367 1.71217e-07 273.083 
-0.27 -0.61 -0.418607 0.462532 0.00977276 0.00970548 1.26648e-05 0.00974367 1.7158e-07 272.701 
-0.31 -0.59 -0.604063 0.720215 0.00977718 0.00971073 9.48847e-06 0.00974416 1.71495e-07 272.85 
-0.29 -0.59 -0.379291 0.4584 0.00978297 0.0097163 1.38862e-05 0.0097469 1.71494e-07 272.927 
-0.33 -0.57 -0.375236 0.937837 0.00977922 0.00971353 7.93509e-06 0.00974399 1.7139e-07 273.012 
-0.27 -0.59 -0.418151 0.654085 0.0097685 0.00969469 1.47379e-05 0.00973274 1.71299e-07 272.842 
-0.31 -0.57 -0.364353 0.717122 0.00977579 0.00970579 4.29396e-06 0.00974014 1.71453e-07 272.804 
-0.27 -0.57 -0.674985 0.669253 0.00976861 0.00969907 2.83819e-05 0.00974597 1.71528e-07 272.848 
-0.31 -0.55 -0.290144 0.899129 0.00977091 0.00970116 2.10596e-05 0.00974309 1.71505e-07 272.803 
-0.29 -0.55 -0.465036 0.645245 0.00975607 0.00968999 2.30818e-05 0.00972393 1.71241e-07 272.686 
-0.33 -0.53 -0.135869 0.975918 0.00976484 0.00969988 1.87348e-05 0.00973378 1.71239e-07 272.967 
-0.27 -0.55 -0.338849 0.568481 0.00976021 0.00970662 1.83958e-05 0.00972948 1.71272e-07 272.793 
-0.31 -0.53 -0.315443 0.743857 0.00976446 0.00970221 2.88509e-05 0.00974393 1.71507e-07 272.825 
-0.29 -0.53 -0.271917 0.667932 0.00978228 0.00969718 2.05951e-05 0.00974849 1.71471e-07 273.01 
-0.33 -0.51 -0.342982 0.712161 0.00975926 0.00968574 2.24189e-05 0.00972664 1.71071e-07 273.034 
-0.27 -0.53 -0.465994 0.833118 0.00977386 0.00970594 2.36257e-05 0.00973723 1.71259e-07 273.031 
-0.31 -0.51 -0.23602 0.903493 0.00976405 0.00970512 1.88911e-05 0.00972984 1.71209e-07 272.903 
-0.29 -0.51 -0.36514 0.787169 0.00975222 0.00969642 2.43841e-05 0.00973305 1.71308e-07 272.835 
-0.27 -0.51 -0.520838 1.16682 0.00975396 0.00970042 3.05521e-05 0.00973305 1.71245e-07 272.935 
-0.33 -0.65 -0.373351 0.511277 0.00977324 0.00970301 1.41096e-05 0.00974196 1.71413e-07 272.919 
-0.31 -0.65 -0.282694 0.761344 0.00977195 0.00971295 1.2823e-05 0.00974587 1.71447e-07 272.974 
-0.29 -0.65 -0.537614 0.590095 0.00976095 0.00970132 1.11616e-05 0.00973528 1.7124e-07 273.007 
-0.33 -0.63 -0.382984 0.592742 0.00976034 0.00971114 7.00844e-06 0.00974335 1.71554e-07 272.733 
-0.27 -0.65 -0.509601 0.417998 0.0097726 0.00972168 9.69341e-06 0.00975017 1.71496e-07 273.016 
-0.31 -0.63 -0.534073 0.730402 0.00975706 0.00970035 1.29098e-05 0.00973434 1.71264e-07 272.942 
-0.25 -0.65 -0.562946 0.393907 0.00976276 0.00971518 8.54014e-06 0.00974593 1.7162e-07 272.7 
-0.29 -0.63 -0.477092 0.484375 0.00977155 0.00972011 1.31901e-05 0.0097453 1.71527e-07 272.831 
-0.27 -0.63 -0.4727 0.499107 0.00976019 0.00971127 1.08798e-05 0.00973951 1.71615e-07 272.528 
-0.31 -0.61 -0.415659 0.591978 0.00977406 0.00971014 1.18537e-05 0.0097489 1.71606e-07 272.805 
-0.49 -0.67 0.00694258 0.4481 0.0097719 0.0097115 -3.99876e-06 0.00973974 1.71413e-07 272.857 
-0.47 -0.67 0.0664759 0.362424 0.0097698 0.00972174 1.59589e-07 0.00974495 1.7155e-07 272.785 
-0.45 -0.67 0.114466 0.479793 0.00976609 0.00971895 2.26756e-06 0.00974717 1.71606e-07 272.757 