ITEM: TIMESTEP
1059000
ITEM: NUMBER OF CELLS
5000
ITEM: BOX BOUNDS ss ss pp
-0.5 0.5
-1 1
-0.5 0.5
ITEM: CELLS xc yc f_U[*] f_V[*] f_Tau[1] f_Tau[2] f_Tau[3] f_Press[*] f_Mrho[*] f_Ttra[*] 
-0.49 -0.99 -0.036301 0.0879567 0.00976208 0.00973461 8.33448e-06 0.00974858 1.71469e-07 273.015 
-0.47 -0.99 -0.128136 0.0235836 0.00974887 0.00971875 5.85135e-06 0.00973773 1.71409e-07 272.806 
-0.45 -0.99 -0.24764 0.00983597 0.00975245 0.00972984 5.33449e-06 0.00974489 1.71426e-07 272.98 
-0.49 -0.97 -0.0485978 0.151216 0.00974589 0.00972294 1.02141e-05 0.00973405 1.71312e-07 272.858 
-0.43 -0.99 -0.278653 -0.041722 0.00974704 0.00972095 3.10683e-06 0.00973773 1.7132e-07 272.948 
-0.47 -0.97 -0.0964725 0.080373 0.00974936 0.00972288 1.20916e-05 0.00973979 1.71371e-07 272.924 
-0.41 -0.99 -0.0871252 -0.0779543 0.00974351 0.00972551 5.98552e-07 0.00973819 1.71314e-07 272.971 
-0.45 -0.97 -0.037081 0.0580101 0.00974675 0.00973409 4.2271e-06 0.00974566 1.71447e-07 272.968 
-0.49 -0.95 0.0578043 0.0919294 0.00973798 0.00971426 2.06065e-06 0.00973268 1.71276e-07 272.876 
-0.39 -0.99 -0.145967 0.0875936 0.00974587 0.00972739 1.70113e-06 0.0097377 1.71171e-07 273.184 
-0.43 -0.97 0.0105 0.0428322 0.00974897 0.00972164 1.82773e-06 0.00973982 1.7132e-07 273.007 
-0.47 -0.95 0.113964 0.089316 0.00975288 0.00972703 -4.20318e-07 0.00974103 1.71388e-07 272.932 
-0.37 -0.99 -0.187703 -0.0118598 0.00974296 0.00972819 8.02833e-06 0.00973893 1.71314e-07 272.991 
-0.41 -0.97 -0.16849 -0.180516 0.00974548 0.00972521 3.95484e-06 0.00973794 1.71368e-07 272.878 
-0.45 -0.95 0.195581 -0.0390535 0.00976075 0.00973802 5.77188e-06 0.00975611 1.71609e-07 273.002 
-0.49 -0.93 -0.00832743 0.0457976 0.00976954 0.00972283 -9.79522e-07 0.00975049 1.71536e-07 272.962 
-0.35 -0.99 -0.138067 -0.0926214 0.00973706 0.00971135 4.34811e-06 0.00972172 1.71107e-07 272.838 
-0.39 -0.97 -0.0400608 0.0498153 0.00974214 0.00972515 6.33365e-06 0.00974086 1.71436e-07 272.852 
-0.43 -0.95 0.133056 0.0530249 0.00975959 0.00971969 7.20895e-06 0.00974678 1.71474e-07 272.957 
-0.47 -0.93 0.014883 0.0380297 0.00975992 0.00972284 6.19862e-07 0.00974555 1.71533e-07 272.829 
-0.33 -0.99 -0.0847732 0.0137609 0.00973471 0.00972888 6.39081e-06 0.00972919 1.71245e-07 272.829 
-0.37 -0.97 0.00279604 -0.053037 0.00973951 0.00972746 4.12951e-06 0.00974062 1.71328e-07 273.016 
-0.41 -0.95 0.0292825 0.0412009 0.00975737 0.0097267 3.09099e-06 0.00974323 1.71532e-07 272.764 
-0.45 -0.93 -0.089492 0.0613978 0.00975582 0.00973062 5.83258e-06 0.00974499 1.71532e-07 272.814 
-0.49 -0.91 -0.013875 0.152972 0.00977367 0.00972741 1.15021e-05 0.00975331 1.71479e-07 273.131 
-0.35 -0.97 -0.0375352 -0.0474919 0.00973777 0.0097132 1.02838e-05 0.00972967 1.71175e-07 272.953 
-0.39 -0.95 -0.15678 -0.0389816 0.0097537 0.00972379 6.79823e-06 0.00973898 1.71457e-07 272.764 
-0.43 -0.93 -0.0776978 0.0989923 0.00975435 0.00972434 2.50209e-06 0.00973743 1.71395e-07 272.821 
-0.47 -0.91 -0.216222 0.0313234 0.00976515 0.00972421 6.40773e-06 0.00974522 1.71527e-07 272.828 
-0.33 -0.97 -0.125685 -0.0110541 0.00974297 0.00972524 6.16613e-06 0.00973925 1.71452e-07 272.781 
-0.37 -0.95 -0.135758 -0.0391248 0.00975452 0.00972159 1.1855e-05 0.00974208 1.71309e-07 273.088 
-0.41 -0.93 -0.0717103 0.0313555 0.00975359 0.00972178 1.12575e-05 0.00973244 1.7128e-07 272.864 
-0.45 -0.91 -0.0698911 0.0351034 0.00976492 0.00972415 5.96458e-06 0.00974988 1.71526e-07 272.96 
-0.49 -0.89 -0.00266601 0.128861 0.00977141 0.00972661 1.1602e-05 0.00975042 1.71459e-07 273.083 
-0.35 -0.95 -0.0653052 -0.0156518 0.00975522 0.00971888 3.8163e-06 0.00974006 1.71352e-07 272.962 
-0.39 -0.93 0.0133987 -0.0427334 0.00975115 0.00972352 7.59667e-06 0.00974019 1.71566e-07 272.625 
-0.43 -0.91 -0.156651 0.0622528 0.00976142 0.00973042 9.15304e-06 0.00974355 1.71347e-07 273.069 
-0.47 -0.89 0.0946417 0.116657 0.00977029 0.0097307 8.91768e-06 0.00974927 1.71602e-07 272.822 
-0.37 -0.93 -0.0179256 -0.00220839 0.00975451 0.0097229 2.45785e-06 0.00974469 1.71412e-07 272.997 
-0.41 -0.91 -0.0630847 -0.0077293 0.00976725 0.00971352 2.94637e-06 0.00973893 1.71333e-07 272.961 
-0.45 -0.89 -0.082405 0.152168 0.00976297 0.00971911 5.19448e-06 0.00974479 1.71449e-07 272.941 
-0.49 -0.87 -0.0344192 0.158744 0.00975093 0.00971525 -1.61264e-07 0.00973208 1.71263e-07 272.88 
-0.35 -0.93 -0.261168 0.0209035 0.00975802 0.00972018 8.79744e-06 0.00973971 1.7145e-07 272.796 
-0.39 -0.91 -0.0899597 -0.0494816 0.00977193 0.00972892 1.19585e-05 0.00975377 1.71693e-07 272.803 
-0.43 -0.89 -0.139474 0.0176223 0.00976778 0.00973614 6.00888e-06 0.00975239 1.71479e-07 273.106 
-0.47 -0.87 0.0823425 0.107362 0.00975974 0.00973071 1.04516e-05 0.00974231 1.71405e-07 272.94 
-0.37 -0.91 -0.22797 0.201077 0.00975747 0.00972222 1.04375e-05 0.00973989 1.71609e-07 272.548 
-0.41 -0.89 -0.131884 -0.0533775 0.00976011 0.00971158 4.59837e-06 0.00974093 1.71489e-07 272.769 
-0.45 -0.87 -0.105811 0.208243 0.00976573 0.00972072 9.94406e-06 0.00975004 1.71511e-07 272.989 
-0.49 -0.85 -0.0604706 0.144888 0.00975027 0.00971378 -5.19954e-08 0.00972995 1.71195e-07 272.929 
-0.35 -0.91 -0.135269 0.109786 0.00974936 0.00972085 3.26413e-06 0.00973504 1.71399e-07 272.747 
-0.39 -0.89 -0.0796479 0.1312 0.00975381 0.00971665 1.05813e-05 0.00974281 1.7147e-07 272.851 
-0.43 -0.87 -0.101462 0.0993193 0.00975358 0.0097358 1.13169e-05 0.0097484 1.71543e-07 272.892 
-0.47 -0.85 -0.145608 0.190003 0.0097526 0.00972144 2.06977e-06 0.00974233 1.71334e-07 273.055 
-0.33 -0.91 -0.202225 -0.045074 0.00975488 0.00971937 1.07336e-05 0.00973989 1.71404e-07 272.875 
-0.37 -0.89 -0.163788 0.0967305 0.00976471 0.00973369 1.55782e-05 0.00975633 1.71692e-07 272.877 
-0.41 -0.87 -0.213313 -0.0503451 0.00975802 0.00971388 7.59663e-06 0.00973943 1.71535e-07 272.654 
-0.45 -0.85 -0.1132 0.21687 0.00975841 0.00971808 7.53433e-06 0.0097429 1.71339e-07 273.063 
-0.35 -0.89 -0.216805 0.133759 0.00976655 0.00971923 1.09172e-05 0.00974033 1.71465e-07 272.791 
-0.39 -0.87 -0.297882 0.140545 0.00976677 0.00971519 5.6152e-06 0.00974524 1.71576e-07 272.752 
-0.43 -0.85 -0.200622 0.148117 0.00977085 0.00973927 7.20975e-06 0.00975037 1.71645e-07 272.785 
-0.37 -0.87 -0.347121 0.201008 0.00976972 0.00972895 8.21734e-06 0.00975331 1.71654e-07 272.852 
-0.41 -0.85 -0.178763 0.0626485 0.00976883 0.00971594 9.37955e-06 0.00974487 1.71588e-07 272.721 
-0.35 -0.87 -0.309672 0.0832065 0.00976762 0.00972136 1.16353e-05 0.00974263 1.71457e-07 272.867 
-0.39 -0.85 -0.264798 0.300005 0.00976573 0.00971663 4.16294e-06 0.00974695 1.71568e-07 272.811 
-0.33 -0.87 -0.351156 0.124444 0.00976343 0.00972187 1.35803e-05 0.00974464 1.71534e-07 272.801 
-0.37 -0.85 -0.290795 0.0376201 0.00976523 0.00972223 1.01138e-05 0.00974671 1.71488e-07 272.932 
-0.35 -0.85 -0.242053 0.125828 0.00976541 0.00971936 1.27256e-05 0.00974295 1.71385e-07 272.99 
-0.33 -0.85 -0.375586 0.33331 0.00976673 0.00972478 1.3281e-05 0.00974378 1.71421e-07 272.956 
-0.31 -0.99 -0.0148836 -0.0301703 0.00972967 0.00971488 1.36012e-05 0.0097203 1.71188e-07 272.67 
-0.29 -0.99 -0.0981975 0.0438029 0.0097291 0.00971715 8.5591e-06 0.00972844 1.71169e-07 272.929 
-0.27 -0.99 -0.145983 0.0100182 0.00974244 0.00972823 6.82922e-06 0.00973484 1.71167e-07 273.111 
-0.31 -0.97 -0.37073 0.00506867 0.00974897 0.00972051 6.6686e-06 0.00973675 1.71362e-07 272.853 
-0.29 -0.97 -0.428774 0.18707 0.00975556 0.00971994 7.35669e-06 0.00974717 1.71481e-07 272.957 
-0.33 -0.95 -0.0756861 0.106939 0.00975219 0.00972277 9.61643e-06 0.00973892 1.71333e-07 272.96 
-0.27 -0.97 -0.303179 -0.115854 0.00974266 0.00972225 9.41498e-06 0.00973737 1.71346e-07 272.897 
-0.31 -0.95 -0.136452 0.197718 0.00975027 0.00972102 7.83754e-06 0.00973383 1.71313e-07 272.851 
-0.29 -0.95 -0.105086 0.0950279 0.00974401 0.00971186 9.28638e-06 0.0097274 1.71259e-07 272.755 
-0.33 -0.93 -0.260464 0.152891 0.00975923 0.00971922 3.7489e-06 0.00973738 1.71347e-07 272.894 
-0.27 -0.95 -0.317616 -0.0852235 0.00974916 0.0097279 6.74829e-06 0.00973936 1.7135e-07 272.946 
-0.31 -0.93 -0.0816649 0.0589582 0.00975991 0.00971933 8.91795e-06 0.00974109 1.71553e-07 272.671 
-0.29 -0.93 -0.166154 0.233641 0.00976315 0.00971467 1.01154e-05 0.00974151 1.71476e-07 272.806 
-0.27 -0.93 -0.18956 0.110411 0.00976186 0.00972381 8.52163e-06 0.00974519 1.71519e-07 272.84 
-0.31 -0.91 -0.219074 0.159668 0.00975523 0.00971823 1.0011e-05 0.00973901 1.71441e-07 272.791 
-0.29 -0.91 -0.265979 0.182526 0.00975372 0.00971439 2.35217e-06 0.00973239 1.7139e-07 272.686 
-0.33 -0.89 -0.249522 0.0203737 0.00975795 0.00972113 6.56989e-06 0.00974184 1.71421e-07 272.902 
-0.27 -0.91 -0.127507 0.13785 0.00975705 0.00972258 6.08378e-06 0.00973782 1.71491e-07 272.678 
-0.31 -0.89 -0.21443 0.201066 0.00976047 0.00971984 2.95361e-06 0.00974497 1.71485e-07 272.888 
-0.29 -0.89 -0.175873 0.0570139 0.00975732 0.00971411 9.45462e-06 0.00973993 1.71323e-07 273.004 
-0.27 -0.89 -0.297325 0.246706 0.00975076 0.00971941 1.05313e-05 0.00974147 1.71454e-07 272.839 
-0.31 -0.87 -0.488584 0.184696 0.00975818 0.00972107 8.18385e-06 0.00974046 1.71462e-07 272.799 
-0.29 -0.87 -0.442598 0.112473 0.00975448 0.00970864 9.26044e-06 0.00973684 1.71303e-07 272.95 
-0.27 -0.87 -0.405352 0.23885 0.00975634 0.00972009 1.50428e-05 0.00974243 1.7141e-07 272.936 
-0.31 -0.85 -0.387259 0.0306983 0.00976368 0.00972385 1.65244e-05 0.00974778 1.71489e-07 272.961 
-0.29 -0.85 -0.270859 0.171741 0.00975524 0.00970787 1.32111e-05 0.00973972 1.71399e-07 272.878 
-0.27 -0.85 -0.318609 0.177536 0.00975293 0.00971744 1.17994e-05 0.00973819 1.71178e-07 273.188 
-0.25 -0.99 -0.23526 0.0944322 0.00974781 0.00973738 1.1751e-05 0.00974573 1.71396e-07 273.052 
-0.25 -0.97 -0.179886 0.0931601 0.00974209 0.0097304 7.81987e-06 0.00974006 1.71425e-07 272.846 
-0.25 -0.95 -0.401177 0.08022 0.00974877 0.0097314 8.55593e-06 0.00974297 1.71391e-07 272.981 
-0.25 -0.93 -0.234788 0.0767161 0.00975984 0.0097334 1.14618e-05 0.00974449 1.71549e-07 272.772 
-0.25 -0.91 -0.265077 0.105593 0.00975819 0.00972984 1.01926e-05 0.00974587 1.71618e-07 272.702 
-0.25 -0.89 -0.333181 0.227152 0.0097479 0.00972249 1.45425e-05 0.00973562 1.71373e-07 272.805 
-0.25 -0.87 -0.422596 0.246494 0.00975184 0.00971804 1.62988e-05 0.009738 1.71318e-07 272.958 
-0.25 -0.85 -0.238959 0.289653 0.00976122 0.00972077 1.08495e-05 0.00974539 1.71405e-07 273.028 
-0.25 -0.83 -0.398075 0.222637 0.00976342 0.00971784 7.60027e-06 0.00974519 1.71402e-07 273.027 
-0.33 -0.81 -0.112541 0.231389 0.00976175 0.00971193 1.2476e-05 0.00973993 1.71423e-07 272.846 
-0.31 -0.81 -0.224392 0.189164 0.0097768 0.00972433 1.36969e-05 0.00975301 1.71493e-07 273.101 
-0.29 -0.81 -0.217325 0.158207 0.00978066 0.00972354 9.67813e-06 0.0097554 1.71554e-07 273.07 
-0.27 -0.81 -0.295545 0.265338 0.00977765 0.00972013 1.30196e-05 0.00975498 1.71551e-07 273.063 
-0.31 -0.79 -0.241718 0.15028 0.0097597 0.0097208 6.58022e-06 0.00974088 1.71463e-07 272.809 
-0.29 -0.79 -0.282206 0.371073 0.00976127 0.00972069 1.23112e-05 0.00974034 1.71505e-07 272.727 
-0.33 -0.77 -0.309598 0.320337 0.00977047 0.00972412 1.68495e-05 0.00974682 1.71526e-07 272.874 
-0.27 -0.79 -0.375144 0.239423 0.00976435 0.00971447 1.13571e-05 0.0097417 1.71445e-07 272.86 
-0.31 -0.77 -0.304524 0.132129 0.00976578 0.00971684 1.16575e-05 0.00974277 1.71512e-07 272.784 
-0.29 -0.77 -0.301488 0.341302 0.00975904 0.00971902 1.01138e-05 0.00974043 1.71544e-07 272.667 
-0.27 -0.77 -0.314952 0.224112 0.00975747 0.00971164 8.44733e-06 0.00973802 1.71389e-07 272.846 
-0.31 -0.75 -0.191894 0.369658 0.00976783 0.00972023 1.29366e-05 0.00974942 1.71629e-07 272.783 
-0.29 -0.75 -0.472186 0.323561 0.00976775 0.00972174 1.3555e-05 0.00974994 1.71614e-07 272.822 
-0.27 -0.75 -0.529123 0.471992 0.00976661 0.00970898 1.85996e-05 0.00973643 1.71358e-07 272.85 
-0.49 -0.83 0.0148275 0.239035 0.00975451 0.0097154 -4.09031e-07 0.00973535 1.71309e-07 272.899 
-0.47 -0.83 -0.113179 0.21503 0.00975578 0.00971759 2.18665e-06 0.00973821 1.71555e-07 272.588 
-0.45 -0.83 -0.13868 0.255977 0.00975636 0.00972254 -8.58073e-07 0.00974212 1.71419e-07 272.914 
-0.49 -0.81 -0.0576752 0.288331 0.00976638 0.00972051 1.05219e-06 0.00974307 1.71489e-07 272.829 
-0.43 -0.83 -0.137395 0.23421 0.00975594 0.00972214 4.78219e-06 0.0097401 1.71417e-07 272.861 
-0.47 -0.81 -0.134808 0.265148 0.0097636 0.00971683 -4.93133e-07 0.00974448 1.71529e-07 272.804 
-0.45 -0.81 -0.0744259 0.241817 0.00976718 0.00972399 2.23898e-06 0.00974534 1.71497e-07 272.879 
-0.49 -0.79 -0.0309107 0.469119 0.00975933 0.00972086 3.26518e-06 0.00973875 1.71395e-07 272.857 
-0.43 -0.81 -0.0344309 0.265787 0.009762 0.00971261 4.91969e-06 0.00973986 1.71576e-07 272.6 
-0.47 -0.79 -0.0198206 0.155764 0.00975822 0.00971926 -4.95755e-06 0.00974071 1.7142e-07 272.873 
-0.41 -0.81 -0.200368 0.166189 0.00976444 0.00972644 1.03858e-05 0.00975086 1.71575e-07 272.91 
-0.45 -0.79 -0.063071 0.256771 0.00975792 0.00971667 3.17756e-06 0.0097358 1.71426e-07 272.725 
-0.49 -0.77 0.0744034 0.370654 0.00975923 0.00972324 5.85991e-06 0.00974347 1.71384e-07 273.007 
-0.39 -0.81 -0.274904 0.221181 0.00975926 0.0097149 1.36396e-05 0.00974347 1.71561e-07 272.725 
-0.43 -0.79 -0.303022 0.349982 0.00976584 0.00971187 4.56938e-06 0.00973742 1.71511e-07 272.635 
-0.47 -0.77 0.0389715 0.297073 0.00975755 0.00972588 3.64133e-06 0.00974361 1.71441e-07 272.92 
-0.37 -0.81 -0.0623264 0.107302 0.00975817 0.00971953 1.0919e-05 0.00973954 1.71545e-07 272.642 
-0.41 -0.79 -0.266132 0.275711 0.00976749 0.00972458 8.67403e-06 0.00974972 1.71661e-07 272.741 
-0.45 -0.77 -0.222399 0.450442 0.00975682 0.0097121 -4.34049e-06 0.00973419 1.71423e-07 272.684 
-0.35 -0.81 -0.0245366 0.199782 0.00975235 0.00971423 6.28549e-06 0.00973755 1.71427e-07 272.773 
-0.39 -0.79 -0.193232 0.135644 0.00976482 0.00971173 8.70565e-06 0.00973926 1.71544e-07 272.634 
-0.43 -0.77 -0.197851 0.407753 0.0097563 0.00971006 2.13134e-06 0.0097334 1.7142e-07 272.667 
-0.37 -0.79 -0.256637 0.108624 0.00977407 0.00971926 1.18604e-05 0.00974393 1.71557e-07 272.744 
-0.41 -0.77 -0.189084 0.141853 0.00975649 0.00971278 9.33322e-06 0.00973437 1.71352e-07 272.803 
-0.35 -0.79 -0.227768 0.17117 0.00977446 0.00971751 1.35795e-05 0.00974708 1.71586e-07 272.786 
-0.39 -0.77 -0.101505 0.135789 0.00975852 0.0097206 1.13831e-05 0.00974493 1.71587e-07 272.725 
-0.43 -0.75 0.0603043 0.212286 0.00976718 0.00970723 -9.86551e-07 0.00974096 1.71462e-07 272.812 
-0.33 -0.79 -0.258846 0.29339 0.0097634 0.00971477 5.85312e-06 0.00973964 1.7143e-07 272.826 
-0.37 -0.77 -0.123332 0.211254 0.00975983 0.00971599 2.95995e-06 0.00973838 1.71456e-07 272.749 
-0.41 -0.75 -0.0267325 0.3385 0.0097699 0.0097054 6.96347e-06 0.0097443 1.71593e-07 272.697 
-0.35 -0.77 -0.342809 0.277161 0.00976874 0.0097145 8.51593e-06 0.00974118 1.71437e-07 272.858 
-0.39 -0.75 -0.218565 0.189283 0.00977417 0.00972459 7.52348e-06 0.0097512 1.71702e-07 272.717 
-0.49 -0.75 -0.043697 0.281548 0.00976777 0.00972814 5.56578e-06 0.00975206 1.71508e-07 273.05 
-0.47 -0.75 -0.0900077 0.497212 0.0097654 0.0097305 5.17479e-06 0.00974537 1.7143e-07 272.987 
-0.45 -0.75 -0.0971711 0.523026 0.00976481 0.00971161 2.7621e-07 0.00973458 1.71449e-07 272.654 
-0.49 -0.73 -0.11174 0.471866 0.00976954 0.00972104 6.52692e-06 0.00974681 1.71446e-07 273.001 
-0.47 -0.73 -0.23727 0.465231 0.00977428 0.00973935 2.57411e-06 0.0097543 1.71459e-07 273.191 
-0.45 -0.73 -0.139352 0.271195 0.00977428 0.00971519 -3.88268e-06 0.00974191 1.71416e-07 272.912 
-0.49 -0.71 -0.0359996 0.626456 0.00977501 0.00972057 -1.24282e-06 0.00974753 1.71559e-07 272.842 
-0.43 -0.73 -0.0908026 0.374325 0.00976447 0.00970229 4.24507e-06 0.00973619 1.71389e-07 272.795 
-0.47 -0.71 -0.0762254 0.49098 0.00977597 0.00973706 1.93153e-06 0.0097561 1.71506e-07 273.166 
-0.37 -0.75 -0.217628 0.166293 0.00976804 0.00971806 1.00804e-05 0.00974054 1.71544e-07 272.671 
-0.41 -0.73 -0.176886 0.351513 0.00976572 0.00970092 5.7231e-07 0.00973706 1.7155e-07 272.563 
-0.45 -0.71 -0.0184582 0.213657 0.00976606 0.00971403 8.66833e-06 0.00974003 1.713e-07 273.045 
-0.49 -0.69 0.0561795 0.593526 0.00976743 0.00971639 -6.81061e-06 0.00974465 1.71459e-07 272.92 
-0.35 -0.75 -0.0535307 0.26412 0.00976022 0.00970983 8.62994e-06 0.00973533 1.71386e-07 272.776 
-0.39 -0.73 -0.184997 0.231122 0.00977133 0.00971593 1.11537e-05 0.00974356 1.7151e-07 272.809 
-0.43 -0.71 -0.203679 0.365094 0.00976536 0.0097064 3.54167e-06 0.00973887 1.71541e-07 272.628 
-0.47 -0.69 0.154666 0.434586 0.00976921 0.009726 5.14962e-06 0.00974951 1.7142e-07 273.119 
-0.37 -0.73 -0.292261 0.20592 0.00977342 0.00972364 1.10823e-05 0.00974685 1.71566e-07 272.811 
-0.41 -0.71 -0.11711 0.448539 0.00976822 0.00969516 1.24196e-07 0.00973481 1.71639e-07 272.359 
-0.45 -0.69 -0.0726316 0.393739 0.00977781 0.00971352 8.77117e-06 0.00974853 1.71515e-07 272.94 
-0.35 -0.73 -0.528491 0.375206 0.00977239 0.00971068 9.5567e-06 0.00974541 1.71577e-07 272.754 
-0.39 -0.71 -0.189301 0.234634 0.00976808 0.00971664 1.22037e-06 0.00974036 1.71527e-07 272.693 
-0.43 -0.69 -0.116073 0.411713 0.00977877 0.0097163 7.61529e-06 0.00975116 1.71734e-07 272.666 
-0.33 -0.73 -0.342444 0.171611 0.00977195 0.00970781 1.38566e-05 0.00974065 1.71586e-07 272.607 
-0.37 -0.71 -0.1258 0.245083 0.00977058 0.00971689 1.34301e-05 0.00974633 1.7158e-07 272.774 
-0.41 -0.69 -0.111162 0.333785 0.00976976 0.00970134 8.58469e-07 0.00973611 1.71582e-07 272.486 
-0.35 -0.71 -0.249939 0.4924 0.00977075 0.00970759 9.72152e-06 0.00974646 1.7157e-07 272.795 
-0.39 -0.69 -0.102119 0.377366 0.00976267 0.00970436 5.24744e-06 0.00973467 1.71404e-07 272.729 
-0.37 -0.69 -0.313188 0.333379 0.00976266 0.00971397 1.03666e-05 0.00974242 1.71533e-07 272.741 
-0.35 -0.69 -0.267146 0.533179 0.00976307 0.00970495 1.18313e-05 0.00973481 1.71385e-07 272.763 
-0.35 -0.67 -0.246753 0.44961 0.00977197 0.00971498 1.10497e-05 0.00974499 1.71501e-07 272.864 
-0.33 -0.67 -0.367629 0.592339 0.00975705 0.00970315 8.2064e-06 0.00973882 1.71475e-07 272.732 
-0.33 -0.75 -0.106687 0.269293 0.00976122 0.00971604 1.05551e-05 0.00973822 1.71429e-07 272.788 
-0.31 -0.73 -0.417935 0.485044 0.00976858 0.00972467 1.13528e-05 0.00975055 1.71595e-07 272.869 
-0.29 -0.73 -0.353561 0.473015 0.00977202 0.0097141 1.39195e-05 0.00975038 1.71525e-07 272.975 
-0.33 -0.71 -0.526579 0.166988 0.0097681 0.00971154 1.39523e-05 0.00974188 1.71501e-07 272.776 
-0.27 -0.73 -0.484686 0.562119 0.00976641 0.00971718 1.89411e-05 0.00974648 1.71461e-07 272.969 
-0.31 -0.71 -0.395875 0.476816 0.00976588 0.00972422 1.52485e-05 0.00974825 1.71553e-07 272.871 
-0.29 -0.71 -0.476482 0.466958 0.00975892 0.0097073 1.70997e-05 0.00973938 1.71308e-07 273.013 
-0.33 -0.69 -0.270276 0.321227 0.00977447 0.00971228 6.90446e-06 0.00974663 1.71644e-07 272.682 
-0.27 -0.71 -0.384892 0.470344 0.00976554 0.00971404 1.24539e-05 0.00974162 1.71335e-07 273.034 
-0.31 -0.69 -0.56001 0.470093 0.00977881 0.00971764 1.63549e-05 0.00975085 1.71582e-07 272.899 
-0.29 -0.69 -0.542436 0.564095 0.00977736 0.00971342 1.87915e-05 0.00975035 1.71515e-07 272.992 
-0.27 -0.69 -0.581253 0.371739 0.009774 0.0097177 1.32283e-05 0.0097459 1.71375e-07 273.089 
-0.31 -0.67 -0.420723 0.576444 0.00975588 0.00971313 1.30219e-05 0.0097386 1.71447e-07 272.771 
-0.29 -0.67 -0.441081 0.471581 0.00976346 0.0097142 1.65442e-05 0.00974252 1.71317e-07 273.087 
-0.41 -0.83 -0.199717 0.0666891 0.00975778 0.00972413 1.00528e-05 0.00974173 1.71549e-07 272.696 
-0.39 -0.83 -0.1738 0.281511 0.00975599 0.00971735 6.06402e-06 0.00973551 1.71456e-07 272.669 
-0.37 -0.83 -0.218268 0.219407 0.00975271 0.00971861 6.11796e-06 0.00973659 1.71302e-07 272.945 
-0.35 -0.83 -0.328354 0.0780761 0.00975837 0.00971539 1.58305e-05 0.00973674 1.71386e-07 272.814 
-0.33 -0.83 -0.217841 0.323663 0.00975781 0.00972449 1.43877e-05 0.00973906 1.71281e-07 273.047 
-0.31 -0.83 -0.135599 -0.0954294 0.00975255 0.00971503 1.93437e-05 0.00974143 1.71456e-07 272.835 
-0.29 -0.83 -0.248189 0.21014 0.00975938 0.00971954 1.72181e-05 0.00974599 1.71348e-07 273.135 
-0.27 -0.83 -0.294384 0.288001 0.00976132 0.00971839 7.4065e-06 0.00974671 1.71403e-07 273.068 
-0.27 -0.67 -0.468475 0.492489 0.00976206 0.00972014 1.82175e-05 0.00974335 1.71385e-07 273.002 
-0.25 -0.67 -0.549257 0.413112 0.00976912 0.00971736 1.16186e-05 0.00974989 1.71393e-07 273.173 
-0.25 -0.81 -0.264646 0.348725 0.00976467 0.00971596 6.97538e-06 0.00974468 1.71417e-07 272.989 
-0.25 -0.79 -0.274175 0.213556 0.00977003 0.00972327 2.00834e-05 0.00974493 1.71433e-07 272.97 
-0.35 -0.55 -0.214432 0.786249 0.00978344 0.0097099 6.87489e-06 0.0097454 1.71459e-07 272.942 
-0.39 -0.53 -0.25854 0.870485 0.0097769 0.00969353 4.88529e-06 0.0097377 1.71457e-07 272.729 
-0.37 -0.57 -0.25443 0.777621 0.0097701 0.00970383 1.10768e-05 0.00974387 1.71318e-07 273.123 
-0.41 -0.55 -0.240963 0.92216 0.00976292 0.00969874 7.47365e-06 0.00973742 1.71414e-07 272.789 
-0.45 -0.53 -0.0904108 0.598394 0.00976227 0.00969654 -3.27469e-06 0.00972918 1.71308e-07 272.727 
-0.35 -0.57 -0.236716 0.763217 0.00977658 0.0097023 1.75623e-05 0.0097437 1.71456e-07 272.898 
-0.39 -0.55 -0.328717 0.715019 0.00976542 0.00969018 3.99719e-06 0.00973627 1.71361e-07 272.841 
-0.43 -0.53 -0.202475 0.887817 0.00976768 0.00969083 3.2925e-06 0.00973161 1.71403e-07 272.644 
-0.47 -0.51 -0.0453692 0.776826 0.00977209 0.00970187 -2.5691e-06 0.00974072 1.71536e-07 272.688 
-0.37 -0.55 -0.255835 0.756136 0.00976845 0.00969541 9.16712e-06 0.00973866 1.71275e-07 273.046 
-0.41 -0.53 -0.260383 0.752374 0.00977325 0.00969879 5.01376e-06 0.00973641 1.71454e-07 272.697 
-0.45 -0.51 -0.265684 0.720305 0.00976892 0.0096928 3.10237e-06 0.00973585 1.71457e-07 272.678 
-0.37 -0.53 -0.306059 0.724037 0.0097791 0.00969776 -1.49508e-06 0.00974064 1.71506e-07 272.734 
-0.41 -0.51 -0.265591 0.802819 0.00976332 0.00969875 -1.56481e-06 0.00973371 1.7137e-07 272.755 
-0.35 -0.53 -0.376911 0.7805 0.00977534 0.00970421 8.36573e-06 0.00974182 1.71489e-07 272.794 
-0.39 -0.51 -0.377145 0.870819 0.00977165 0.00969386 -1.01382e-06 0.00973411 1.71435e-07 272.664 
-0.37 -0.51 -0.366064 0.743695 0.00977101 0.00969255 4.12149e-06 0.00973181 1.71311e-07 272.797 
-0.35 -0.51 -0.413839 0.838258 0.0097682 0.00969864 1.06448e-05 0.00972747 1.71328e-07 272.647 
-0.49 -0.65 -0.056428 0.485321 0.00977357 0.00972227 7.82417e-06 0.00975009 1.71507e-07 272.997 
-0.47 -0.65 -0.0770723 0.41863 0.00976972 0.00971392 6.60022e-08 0.00974691 1.71463e-07 272.978 
-0.45 -0.65 -0.0356113 0.62919 0.00976536 0.00971722 6.87871e-06 0.00974629 1.7163e-07 272.694 
-0.49 -0.63 0.0431988 0.442518 0.00976931 0.00972517 3.54802e-06 0.00975297 1.71752e-07 272.687 
-0.43 -0.65 0.00157678 0.575467 0.00975734 0.00969908 5.05856e-06 0.00973502 1.71426e-07 272.703 
-0.47 -0.63 0.042266 0.53125 0.0097649 0.00970812 2.32206e-06 0.00974264 1.71581e-07 272.67 
-0.41 -0.65 0.00622963 0.544994 0.00976249 0.00970516 9.76394e-06 0.00973703 1.71452e-07 272.718 
-0.45 -0.63 -0.0529536 0.612363 0.00977165 0.00971703 8.00436e-06 0.00974897 1.71633e-07 272.765 
-0.49 -0.61 -0.0376137 0.52655 0.0097567 0.00971096 -4.57098e-06 0.00973999 1.7139e-07 272.899 
-0.39 -0.65 -0.109064 0.441395 0.00975978 0.0097148 7.84967e-06 0.00973815 1.71308e-07 272.979 
-0.43 -0.63 -0.107711 0.59604 0.00977551 0.0097063 7.99424e-06 0.00974278 1.71328e-07 273.077 
-0.47 -0.61 -0.119931 0.487054 0.00976421 0.00971339 7.61651e-06 0.00974355 1.71476e-07 272.862 
-0.37 -0.65 -0.240158 0.469822 0.00975861 0.00970012 3.12327e-06 0.00972707 1.71128e-07 272.955 
-0.41 -0.63 -0.128827 0.599961 0.00977034 0.00969517 2.32179e-06 0.00973547 1.71356e-07 272.827 
-0.45 -0.61 -0.0781174 0.680463 0.00976319 0.00970883 -2.26906e-06 0.00973844 1.71376e-07 272.879 
-0.49 -0.59 0.00256794 0.493221 0.00977002 0.00970542 -6.23214e-06 0.00974609 1.7162e-07 272.705 
-0.35 -0.65 -0.312093 0.465854 0.00976604 0.00971183 1.27352e-05 0.00973739 1.71398e-07 272.814 
-0.39 -0.63 -0.102267 0.505217 0.00977801 0.00971804 1.27473e-05 0.00974834 1.7154e-07 272.896 
-0.43 -0.61 -0.00029738 0.644018 0.00977186 0.00970866 4.39615e-06 0.00974183 1.71367e-07 272.988 
-0.47 -0.59 0.0874025 0.539743 0.00977652 0.00971121 -5.62539e-06 0.00974604 1.71476e-07 272.933 
-0.37 -0.63 -0.200965 0.495738 0.00976523 0.00970005 1.17514e-05 0.0097314 1.71231e-07 272.912 
-0.41 -0.61 -0.124291 0.566686 0.0097724 0.00969872 1.04945e-05 0.00973578 1.71277e-07 272.962 
-0.45 -0.59 0.0818848 0.533704 0.00977737 0.00971116 3.17971e-06 0.00974959 1.71486e-07 273.016 
-0.49 -0.57 -0.0547171 0.477717 0.00978033 0.00971089 -3.82854e-06 0.00974962 1.71547e-07 272.92 
-0.35 -0.63 -0.370206 0.593487 0.00975902 0.00970111 1.24846e-05 0.00973053 1.71282e-07 272.806 
-0.39 -0.61 -0.13641 0.465461 0.00976972 0.00970546 8.32392e-06 0.00973801 1.71339e-07 272.925 
-0.43 -0.59 -0.0316054 0.766197 0.00976912 0.00969875 5.56767e-06 0.00974318 1.71491e-07 272.828 
-0.47 -0.57 -0.115959 0.484981 0.00976923 0.00970466 -5.1653e-06 0.00973444 1.71317e-07 272.861 
-0.37 -0.61 -0.185538 0.692025 0.00977396 0.00970526 1.4435e-05 0.0097403 1.715e-07 272.733 
-0.41 -0.59 -0.0653102 0.618135 0.00977483 0.00970067 5.20754e-06 0.00973788 1.71375e-07 272.865 
-0.45 -0.57 -0.12979 0.673163 0.00976843 0.00970224 2.48107e-06 0.00973759 1.71359e-07 272.882 
-0.49 -0.55 -0.0718046 0.62456 0.00975371 0.00970589 -5.83628e-06 0.00973286 1.71289e-07 272.861 
-0.35 -0.61 -0.216569 0.630443 0.00977095 0.00970061 1.23737e-05 0.00973281 1.71344e-07 272.772 
-0.39 -0.59 -0.131889 0.604493 0.00977201 0.00969256 9.98918e-06 0.00973611 1.7133e-07 272.886 
-0.43 -0.57 -0.00175577 0.757774 0.00977328 0.00969806 6.36049e-06 0.00974089 1.71376e-07 272.947 
-0.47 -0.55 -0.192711 0.633205 0.00976418 0.00969592 1.09238e-06 0.00973506 1.71413e-07 272.725 
-0.33 -0.61 -0.398048 0.604232 0.00976526 0.0097004 1.78343e-05 0.00973517 1.7126e-07 272.972 
-0.37 -0.59 -0.218452 0.675938 0.00977657 0.00971317 1.88083e-05 0.00974783 1.7154e-07 272.88 
-0.41 -0.57 -0.0807328 0.675477 0.00976673 0.00969913 1.16156e-05 0.00973762 1.71262e-07 273.038 
-0.45 -0.55 -0.204856 0.54848 0.00976349 0.00970194 3.30577e-06 0.0097323 1.71273e-07 272.87 
-0.49 -0.53 0.0359243 0.673534 0.00976286 0.00969699 -3.85811e-06 0.00973661 1.71306e-07 272.939 
-0.35 -0.59 -0.350148 0.740206 0.00976855 0.00969532 1.55032e-05 0.00972885 1.71341e-07 272.665 
-0.39 -0.57 -0.220149 0.75048 0.00976809 0.00968704 9.65977e-06 0.00973333 1.71177e-07 273.053 
-0.43 -0.55 -0.214098 0.62782 0.00976138 0.00969244 8.84244e-06 0.00973221 1.71361e-07 272.728 
-0.47 -0.53 -0.010788 0.610113 0.00975628 0.00969731 6.39855e-07 0.00972664 1.71212e-07 272.809 
-0.29 -0.57 -0.587882 0.705762 0.00977425 0.00971382 1.86707e-05 0.00974681 1.71452e-07 272.992 
-0.33 -0.55 -0.414526 0.890912 0.00978356 0.00970985 9.15843e-06 0.00974894 1.71473e-07 273.018 
-0.29 -0.61 -0.373188 0.632177 0.00976991 0.00971882 1.03878e-05 0.00974471 1.71618e-07 272.67 
-0.33 -0.59 -0.327254 0.809619 0.00976791 0.00970451 1.41171e-05 0.00973814 1.71329e-07 272.945 
-0.27 -0.61 -0.449036 0.551207 0.00977846 0.0097132 1.41476e-05 0.00974609 1.71586e-07 272.759 
-0.31 -0.59 -0.424195 0.637913 0.00977002 0.0097127 1.02027e-05 0.00974027 1.71418e-07 272.863 
-0.29 -0.59 -0.37864 0.542895 0.00977631 0.00972049 1.05489e-05 0.00974624 1.71569e-07 272.79 
-0.33 -0.57 -0.364194 0.750368 0.00978085 0.00971398 9.42427e-06 0.00974777 1.7139e-07 273.117 
-0.27 -0.59 -0.47059 0.69756 0.00976899 0.00970668 1.35069e-05 0.00973898 1.71481e-07 272.726 
-0.31 -0.57 -0.399845 0.714089 0.0097803 0.00970861 6.42969e-06 0.00974417 1.71494e-07 272.851 
-0.27 -0.57 -0.639952 0.728864 0.00976722 0.00970659 2.37627e-05 0.00974617 1.71526e-07 272.856 
-0.31 -0.55 -0.410328 0.943107 0.0097747 0.00971028 1.82135e-05 0.00974418 1.71431e-07 272.951 
-0.29 -0.55 -0.555372 0.695069 0.00976316 0.00969551 2.18464e-05 0.00973129 1.71195e-07 272.967 
-0.33 -0.53 -0.305912 1.06738 0.00977362 0.0096981 1.38912e-05 0.00973786 1.71347e-07 272.909 
-0.27 -0.55 -0.428173 0.590312 0.00976721 0.0097131 2.07934e-05 0.00974194 1.71417e-07 272.912 
-0.31 -0.53 -0.417063 0.843503 0.00977231 0.00970526 2.37357e-05 0.00974187 1.71482e-07 272.806 
-0.29 -0.53 -0.314493 0.679742 0.00978228 0.00970119 1.90083e-05 0.00974637 1.71464e-07 272.961 
-0.33 -0.51 -0.264565 0.928368 0.00976478 0.00969066 1.59843e-05 0.00972913 1.71113e-07 273.037 
-0.27 -0.53 -0.483638 0.765984 0.00977975 0.00971168 2.24174e-05 0.0097432 1.71508e-07 272.802 
-0.31 -0.51 -0.266152 0.907619 0.00976987 0.00970457 1.72818e-05 0.00973303 1.71328e-07 272.803 
-0.29 -0.51 -0.46784 0.850982 0.00976394 0.00970012 2.28275e-05 0.00973814 1.71436e-07 272.775 
-0.27 -0.51 -0.568101 0.942139 0.00976097 0.00970355 2.76268e-05 0.00973705 1.71362e-07 272.862 
-0.33 -0.65 -0.33051 0.494127 0.00976649 0.00970599 1.81383e-05 0.00973627 1.71294e-07 272.949 
-0.31 -0.65 -0.230975 0.602666 0.00976439 0.00971384 1.32112e-05 0.00974115 1.71349e-07 272.997 
-0.29 -0.65 -0.382664 0.580413 0.00975839 0.00970535 1.3369e-05 0.0097333 1.71233e-07 272.963 
-0.33 -0.63 -0.330722 0.525956 0.00976371 0.00970976 1.03067e-05 0.00973936 1.71372e-07 272.912 
-0.27 -0.65 -0.467774 0.507217 0.00976782 0.00972504 1.21498e-05 0.00974659 1.7148e-07 272.942 
-0.31 -0.63 -0.504688 0.675099 0.00976205 0.00970656 1.75641e-05 0.00973819 1.71312e-07 272.974 
-0.25 -0.65 -0.575762 0.430058 0.00976277 0.00971529 1.34561e-05 0.00974082 1.71458e-07 272.815 
-0.29 -0.63 -0.521956 0.51641 0.00976891 0.00971806 1.24886e-05 0.00974356 1.71502e-07 272.822 
-0.27 -0.63 -0.463757 0.578007 0.00975865 0.00971674 1.42649e-05 0.00973713 1.7146e-07 272.708 
-0.31 -0.61 -0.448164 0.633135 0.00977145 0.0097126 1.43584e-05 0.00974516 1.71558e-07 272.777 
-0.49 -0.67 0.0750098 0.506632 0.00976767 0.00971586 -5.41041e-06 0.00974194 1.71463e-07 272.839 
-0.47 -0.67 0.0634437 0.410023 0.00976673 0.00972065 1.42396e-07 0.00974418 1.71479e-07 272.876 
-0.45 -0.67 0.127341 0.551685 0.00976478 0.00971452 3.03824e-06 0.00974617 1.71524e-07 272.859 
-0.43 -0.67 -0.0901442 0.558654 0.00977005 0.00970858 4.67626e-06 0.00974355 1.71565e-07 272.722 