ITEM: TIMESTEP
912500
ITEM: NUMBER OF CELLS
5000
ITEM: BOX BOUNDS ss ss pp
-0.5 0.5
-1 1
-0.5 0.5
ITEM: CELLS xc yc f_U[*] f_V[*] f_Tau[1] f_Tau[2] f_Tau[3] f_Press[*] f_Mrho[*] f_Ttra[*] 
-0.49 -0.99 -0.0504845 0.105846 0.00976078 0.00973298 1.31438e-05 0.00975095 1.71715e-07 272.689 
-0.47 -0.99 -0.143069 -0.0958085 0.00974817 0.00971407 2.72559e-06 0.00973403 1.71389e-07 272.734 
-0.45 -0.99 -0.213312 0.0951943 0.00974738 0.00972945 5.31372e-06 0.00974528 1.71469e-07 272.922 
-0.49 -0.97 -0.0773071 0.185125 0.00973933 0.00972433 9.4519e-06 0.00973347 1.71303e-07 272.855 
-0.43 -0.99 -0.272974 -0.0347574 0.00973818 0.00973275 3.95203e-06 0.00974407 1.71322e-07 273.122 
-0.47 -0.97 -0.0853304 0.0496681 0.00974308 0.00971729 1.16278e-05 0.00973534 1.71273e-07 272.956 
-0.41 -0.99 -0.0234867 -0.0839514 0.00973469 0.00972352 3.55956e-06 0.00973297 1.71342e-07 272.78 
-0.45 -0.97 -0.101272 0.0739079 0.00974038 0.0097303 1.73036e-06 0.00974077 1.7137e-07 272.953 
-0.49 -0.95 0.0696112 0.117322 0.00974243 0.00970984 1.21218e-07 0.00973306 1.71261e-07 272.911 
-0.39 -0.99 -0.152081 0.12947 0.00973637 0.00971633 -4.30989e-06 0.00972036 1.70903e-07 273.126 
-0.43 -0.97 0.1023 -0.0659688 0.0097502 0.00973702 4.09845e-07 0.00974386 1.71381e-07 273.022 
-0.47 -0.95 0.0770896 0.216611 0.00975222 0.00972174 2.60443e-06 0.00973553 1.71296e-07 272.925 
-0.37 -0.99 -0.202473 -0.0653495 0.00973815 0.00972562 4.35299e-06 0.00972949 1.71184e-07 272.934 
-0.41 -0.97 -0.0663908 -0.166283 0.00974191 0.00972299 5.41328e-06 0.00973177 1.71135e-07 273.076 
-0.45 -0.95 0.196744 -0.230881 0.0097525 0.009741 7.87392e-06 0.00974764 1.71569e-07 272.83 
-0.49 -0.93 -0.018455 0.0634325 0.00977147 0.00972021 3.81225e-06 0.00974795 1.71446e-07 273.034 
-0.35 -0.99 0.0329717 -0.16247 0.00972372 0.00969509 1.1746e-05 0.00970793 1.70811e-07 272.923 
-0.39 -0.97 0.173497 0.11135 0.00973307 0.00971875 1.21636e-05 0.00973106 1.71252e-07 272.87 
-0.43 -0.95 0.129978 -0.0171637 0.00975189 0.00972695 8.33305e-06 0.00973876 1.71441e-07 272.784 
-0.47 -0.93 0.128338 0.0213776 0.00976585 0.00971948 3.25826e-07 0.00974064 1.71365e-07 272.957 
-0.33 -0.99 0.04531 0.0785041 0.00973313 0.00972586 2.22818e-06 0.00972087 1.71102e-07 272.823 
-0.37 -0.97 0.0872792 -0.107861 0.00973254 0.00972143 -9.1796e-07 0.00972954 1.71238e-07 272.85 
-0.41 -0.95 -0.0297454 -0.0960728 0.00974904 0.00972751 3.76101e-06 0.00973606 1.71386e-07 272.796 
-0.45 -0.93 0.0480074 0.0517719 0.0097634 0.00973363 4.40824e-06 0.00974581 1.71605e-07 272.72 
-0.49 -0.91 0.135065 0.0443219 0.00977648 0.00972867 1.32707e-05 0.0097496 1.7132e-07 273.281 
-0.35 -0.97 -0.0297636 -0.123857 0.00973544 0.00970327 3.87781e-06 0.00971625 1.7092e-07 272.984 
-0.39 -0.95 -0.0673461 0.0238325 0.00974523 0.00972026 2.41228e-06 0.00973006 1.71386e-07 272.628 
-0.43 -0.93 -0.0952198 0.0141984 0.00975814 0.00972254 4.85476e-06 0.00973122 1.71159e-07 273.023 
-0.47 -0.91 -0.233532 0.00474264 0.00976929 0.00971769 3.37167e-06 0.00974264 1.7148e-07 272.831 
-0.33 -0.97 -0.065322 -0.0155629 0.00973896 0.00972149 3.51925e-06 0.00973546 1.71387e-07 272.777 
-0.37 -0.95 -0.137111 0.0512156 0.00975182 0.00971907 1.41242e-05 0.00973962 1.71278e-07 273.068 
-0.41 -0.93 -0.0675297 -0.0672966 0.00976116 0.00973392 1.87244e-05 0.00973598 1.71389e-07 272.789 
-0.45 -0.91 -0.0897031 0.0970711 0.00977074 0.00972864 9.87576e-06 0.00975098 1.71487e-07 273.053 
-0.49 -0.89 -0.141083 0.120715 0.0097704 0.00972707 8.18415e-06 0.00974852 1.71558e-07 272.871 
-0.35 -0.95 -0.202788 -0.0868671 0.00975652 0.00970873 -1.31599e-06 0.00973417 1.71371e-07 272.766 
-0.39 -0.93 -0.174157 0.0285298 0.00975177 0.00972018 6.60523e-06 0.00973322 1.71422e-07 272.66 
-0.43 -0.91 -0.142928 -0.0587359 0.00975493 0.00972667 1.25058e-05 0.00973604 1.71084e-07 273.277 
-0.47 -0.89 0.0500771 0.0900277 0.00976374 0.00972261 1.4496e-05 0.00974774 1.71634e-07 272.728 
-0.37 -0.93 -0.00507205 0.049924 0.00975195 0.00972057 -3.21774e-06 0.00973901 1.71307e-07 273.005 
-0.41 -0.91 -0.144845 0.101379 0.00976272 0.00971938 7.11654e-06 0.00973845 1.71385e-07 272.865 
-0.45 -0.89 -0.205807 0.0957323 0.00975706 0.00972151 3.11539e-06 0.0097451 1.71376e-07 273.065 
-0.49 -0.87 0.0336171 0.14629 0.00973922 0.00970952 -1.4231e-07 0.00972275 1.71203e-07 272.714 
-0.35 -0.93 -0.343612 0.0813876 0.00975112 0.00971256 1.70257e-07 0.0097247 1.7133e-07 272.567 
-0.39 -0.91 -0.127918 -0.0963072 0.00977539 0.00973508 1.23643e-05 0.00975915 1.71663e-07 273.002 
-0.43 -0.89 -0.173713 0.0374044 0.0097752 0.00973457 8.63214e-06 0.00975456 1.71411e-07 273.275 
-0.47 -0.87 0.0883543 0.134913 0.0097538 0.00972606 5.16659e-06 0.00974051 1.71437e-07 272.84 
-0.37 -0.91 -0.250571 0.236978 0.00975873 0.00972855 1.64587e-06 0.00974326 1.71634e-07 272.603 
-0.41 -0.89 -0.15885 0.05486 0.0097677 0.00971656 3.18435e-06 0.00974448 1.71535e-07 272.795 
-0.45 -0.87 -0.153799 0.170022 0.00976357 0.00971874 8.72256e-06 0.00975241 1.71507e-07 273.061 
-0.49 -0.85 -0.0437184 0.118833 0.00974288 0.00971096 -2.93202e-06 0.00972102 1.71139e-07 272.769 
-0.35 -0.91 -0.0623823 0.178786 0.00975158 0.00970749 3.05296e-06 0.00972375 1.71241e-07 272.682 
-0.39 -0.89 -0.226617 0.0974813 0.00976527 0.0097232 1.05951e-05 0.00974336 1.71343e-07 273.07 
-0.43 -0.87 -0.130192 0.0611503 0.00974937 0.00973853 7.9512e-06 0.00975145 1.71539e-07 272.983 
-0.47 -0.85 -0.125427 0.248493 0.00974856 0.0097224 2.69411e-06 0.00973977 1.71367e-07 272.93 
-0.33 -0.91 -0.146527 -0.0345944 0.00975425 0.00970724 8.20079e-06 0.00973432 1.71329e-07 272.839 
-0.37 -0.89 -0.312898 0.0992083 0.00977427 0.0097422 1.96943e-05 0.00975838 1.71435e-07 273.343 
-0.41 -0.87 -0.187848 0.114359 0.00975407 0.00972557 8.17577e-06 0.00974096 1.71544e-07 272.683 
-0.45 -0.85 -0.0204281 0.228385 0.0097487 0.00971232 7.11106e-06 0.00973462 1.71384e-07 272.758 
-0.35 -0.89 -0.389203 0.141187 0.00976488 0.00970571 1.02996e-05 0.00972732 1.71211e-07 272.83 
-0.39 -0.87 -0.154459 0.143118 0.00975689 0.00971784 4.61433e-06 0.00973824 1.71543e-07 272.607 
-0.43 -0.85 -0.116305 0.0631794 0.00976495 0.00974078 -1.73157e-07 0.00974801 1.71597e-07 272.796 
-0.37 -0.87 -0.295311 0.173592 0.00976403 0.00972977 8.94606e-06 0.0097457 1.71491e-07 272.899 
-0.41 -0.85 -0.105907 0.0912023 0.00976233 0.00972394 8.98201e-06 0.00974441 1.71568e-07 272.741 
-0.35 -0.87 -0.217095 0.247402 0.00977348 0.00972267 9.35191e-06 0.00974375 1.71378e-07 273.024 
-0.39 -0.85 -0.272918 0.406715 0.00976109 0.009727 -7.02462e-07 0.00974591 1.71568e-07 272.782 
-0.33 -0.87 -0.557699 -0.0500998 0.00977146 0.00971411 8.58593e-06 0.00974148 1.71365e-07 272.982 
-0.37 -0.85 -0.333655 0.0254171 0.00975957 0.00971908 6.58301e-06 0.00974193 1.71402e-07 272.935 
-0.35 -0.85 -0.379901 0.289065 0.00976067 0.00972257 9.8431e-06 0.00974127 1.7115e-07 273.319 
-0.33 -0.85 -0.449472 0.30778 0.00975672 0.00971631 1.11948e-05 0.00973082 1.71067e-07 273.158 
-0.31 -0.99 0.0667522 -0.00205181 0.0097288 0.00970388 1.20542e-05 0.00971432 1.71082e-07 272.67 
-0.29 -0.99 -0.18205 0.259488 0.00972942 0.00970976 9.77347e-06 0.00971771 1.71051e-07 272.814 
-0.27 -0.99 -0.16427 -0.203383 0.0097516 0.00972574 4.46406e-06 0.0097332 1.71116e-07 273.147 
-0.31 -0.97 -0.321916 0.0732996 0.0097506 0.00971183 2.09199e-06 0.00973836 1.71397e-07 272.843 
-0.29 -0.97 -0.264416 0.23614 0.00975984 0.00971123 5.97671e-06 0.00974776 1.71565e-07 272.839 
-0.33 -0.95 -0.152101 0.161603 0.00975381 0.00971839 1.53139e-06 0.00973603 1.71345e-07 272.861 
-0.27 -0.97 -0.140383 -0.167486 0.0097448 0.00972087 8.67074e-06 0.00973775 1.71452e-07 272.739 
-0.31 -0.95 -0.250058 0.25326 0.00974308 0.00971419 4.18635e-06 0.00973027 1.71293e-07 272.782 
-0.29 -0.95 -0.135477 0.0686632 0.00973423 0.00969271 6.1353e-06 0.00971438 1.71129e-07 272.597 
-0.33 -0.93 -0.348922 0.228917 0.00975226 0.00970848 4.67672e-06 0.00972935 1.71236e-07 272.847 
-0.27 -0.95 -0.325926 -0.0784531 0.00974619 0.00973748 5.49576e-06 0.00973714 1.71349e-07 272.885 
-0.31 -0.93 -0.154641 0.107228 0.00975456 0.00971249 9.75962e-06 0.00973463 1.71498e-07 272.578 
-0.29 -0.93 -0.236257 0.156275 0.00975344 0.00969656 6.3875e-06 0.00972468 1.71284e-07 272.639 
-0.27 -0.93 -0.0912232 -0.0473556 0.00976204 0.00973263 1.35469e-06 0.00975102 1.71545e-07 272.962 
-0.31 -0.91 -0.187294 0.335126 0.00975858 0.00971282 2.18015e-06 0.00973937 1.7144e-07 272.803 
-0.29 -0.91 -0.286744 -0.0231638 0.00975916 0.00970496 -4.67391e-06 0.00972934 1.71291e-07 272.758 
-0.33 -0.89 -0.294608 -0.0729102 0.00976038 0.00971205 -4.60531e-07 0.00973087 1.71255e-07 272.86 
-0.27 -0.91 -0.122755 -0.0579597 0.00975828 0.00971779 3.01626e-06 0.00972853 1.71433e-07 272.511 
-0.31 -0.89 -0.150921 0.318665 0.00976639 0.00971154 -1.43094e-06 0.00974169 1.71562e-07 272.673 
-0.29 -0.89 -0.114014 -0.069046 0.00976439 0.00971172 1.79743e-06 0.00973969 1.71333e-07 272.983 
-0.27 -0.89 -0.301206 0.141668 0.00974856 0.00970488 1.38898e-05 0.00973616 1.71427e-07 272.734 
-0.31 -0.87 -0.496603 0.0139757 0.00975173 0.00971287 3.75381e-06 0.0097308 1.71361e-07 272.688 
-0.29 -0.87 -0.295498 0.0217029 0.00973989 0.00969932 8.82469e-06 0.00972642 1.7123e-07 272.774 
-0.27 -0.87 -0.341182 0.323119 0.00974228 0.0097147 9.04225e-06 0.0097305 1.71334e-07 272.724 
-0.31 -0.85 -0.485903 -0.148107 0.00975512 0.00970963 2.10868e-05 0.00973224 1.71405e-07 272.659 
-0.29 -0.85 -0.353008 0.0201828 0.00974863 0.00970242 1.63705e-05 0.00974185 1.71546e-07 272.704 
-0.27 -0.85 -0.436631 0.225533 0.00974658 0.00971174 4.32858e-06 0.00973384 1.71103e-07 273.185 
-0.25 -0.99 -0.17294 0.072751 0.00975156 0.00973677 7.75598e-06 0.00974708 1.71381e-07 273.113 
-0.25 -0.97 -0.133252 0.201902 0.00974629 0.00973528 -2.11302e-06 0.00974341 1.7156e-07 272.725 
-0.25 -0.95 -0.340182 0.107044 0.00973852 0.00973433 7.83974e-06 0.00973863 1.71408e-07 272.834 
-0.25 -0.93 -0.0524789 0.029739 0.0097582 0.00973579 1.15427e-05 0.00974547 1.71549e-07 272.8 
-0.25 -0.91 -0.246242 0.0899268 0.00975705 0.00972678 1.63941e-05 0.00974392 1.71535e-07 272.78 
-0.25 -0.89 -0.468049 0.120106 0.00975401 0.00972172 1.11552e-05 0.00973909 1.71252e-07 273.095 
-0.25 -0.87 -0.447293 0.113869 0.00973585 0.00971343 1.21028e-05 0.00973166 1.71119e-07 273.098 
-0.25 -0.85 -0.366481 0.375685 0.00975925 0.00971698 6.66783e-06 0.00974288 1.71265e-07 273.18 
-0.25 -0.83 -0.485444 0.126718 0.00975692 0.00970555 2.88889e-06 0.00974101 1.71195e-07 273.24 
-0.33 -0.81 -0.0288853 0.155569 0.00975965 0.00970368 7.53855e-06 0.00972603 1.71266e-07 272.705 
-0.31 -0.81 -0.292749 0.302285 0.0097774 0.00971101 1.36196e-05 0.00974178 1.71239e-07 273.191 
-0.29 -0.81 -0.268195 0.161625 0.00977633 0.00971314 6.94894e-06 0.00974531 1.71321e-07 273.159 
-0.27 -0.81 -0.415323 0.236067 0.00977489 0.00972537 8.70655e-06 0.0097548 1.71535e-07 273.084 
-0.31 -0.79 -0.200656 0.139877 0.00976228 0.00970798 6.07215e-06 0.00973378 1.7143e-07 272.663 
-0.29 -0.79 -0.383661 0.560693 0.00976239 0.0097141 7.05222e-06 0.00973182 1.71376e-07 272.693 
-0.33 -0.77 -0.45817 0.247337 0.00976652 0.00971747 1.81949e-05 0.00973872 1.71325e-07 272.968 
-0.27 -0.79 -0.555403 0.228625 0.00975884 0.00971582 1.33764e-05 0.00973596 1.71418e-07 272.742 
-0.31 -0.77 -0.419988 0.187495 0.00975651 0.00969625 8.85134e-06 0.00972756 1.71258e-07 272.761 
-0.29 -0.77 -0.343211 0.534406 0.00976174 0.00972273 1.15579e-05 0.00974114 1.71546e-07 272.684 
-0.27 -0.77 -0.416595 0.285278 0.00975865 0.00970322 1.18645e-05 0.00973243 1.71371e-07 272.719 
-0.31 -0.75 -0.109361 0.410605 0.00975089 0.0097099 8.51833e-06 0.00974267 1.71508e-07 272.787 
-0.29 -0.75 -0.506081 0.576492 0.00975029 0.00971315 1.19188e-05 0.00973708 1.71443e-07 272.733 
-0.27 -0.75 -0.605035 0.64654 0.00975152 0.00970514 1.49134e-05 0.00972731 1.71224e-07 272.809 
-0.49 -0.83 -0.0402262 0.159654 0.00975752 0.00971592 2.15114e-06 0.00973678 1.71489e-07 272.653 
-0.47 -0.83 0.0173406 0.164786 0.00975438 0.00971331 8.67236e-07 0.00973558 1.71543e-07 272.533 
-0.45 -0.83 -0.0723711 0.232821 0.00975513 0.00972485 -1.94628e-06 0.00974353 1.71462e-07 272.884 
-0.49 -0.81 0.058874 0.0717879 0.00975193 0.00971679 -2.9623e-06 0.00973948 1.71394e-07 272.88 
-0.43 -0.83 -0.0759051 0.104555 0.00974469 0.00972274 3.41109e-06 0.00973012 1.71442e-07 272.541 
-0.47 -0.81 -0.0238167 0.204732 0.0097563 0.00971587 -3.03553e-06 0.00974893 1.71503e-07 272.97 
-0.45 -0.81 -0.0155868 0.235359 0.00976358 0.00972349 3.6112e-06 0.00974471 1.71654e-07 272.612 
-0.49 -0.79 -0.100765 0.327987 0.00975839 0.00971707 2.96893e-06 0.00973794 1.71379e-07 272.859 
-0.43 -0.81 -0.180124 0.326382 0.00977092 0.00972303 -1.25935e-06 0.00974791 1.71873e-07 272.354 
-0.47 -0.79 -0.0634442 -0.00593734 0.00974806 0.00971073 -4.63786e-06 0.00973508 1.71385e-07 272.77 
-0.41 -0.81 -0.398154 0.302634 0.00976333 0.00971873 9.59459e-06 0.00974689 1.71608e-07 272.747 
-0.45 -0.79 -0.0249616 0.343287 0.0097508 0.00972812 -8.53577e-06 0.00974193 1.71501e-07 272.777 
-0.49 -0.77 0.133037 0.179691 0.00974502 0.00970996 2.74948e-06 0.00972972 1.71214e-07 272.892 
-0.39 -0.81 -0.231508 0.176754 0.00975535 0.00972649 1.42428e-05 0.00975263 1.71709e-07 272.747 
-0.43 -0.79 -0.254986 0.448997 0.00975842 0.00971717 -1.70587e-07 0.00974218 1.71519e-07 272.755 
-0.47 -0.77 0.0113587 0.168733 0.00975246 0.00972253 -7.70806e-07 0.00973972 1.71341e-07 272.97 
-0.37 -0.81 0.158073 0.365409 0.00975762 0.00971494 7.29291e-06 0.00973803 1.71655e-07 272.424 
-0.41 -0.79 -0.374222 0.339873 0.00976031 0.00971537 7.12886e-06 0.00974398 1.71732e-07 272.468 
-0.45 -0.77 -0.291874 0.582055 0.00974759 0.0097261 -3.18002e-06 0.00973745 1.71422e-07 272.777 
-0.35 -0.81 0.117931 0.290126 0.00974657 0.00971425 6.80576e-06 0.00973565 1.71418e-07 272.733 
-0.39 -0.79 -0.230626 -0.0278235 0.00976974 0.00972207 5.81058e-06 0.00975117 1.71782e-07 272.589 
-0.43 -0.77 -0.328524 0.595802 0.0097349 0.00970577 3.21911e-06 0.00972157 1.71273e-07 272.57 
-0.37 -0.79 -0.396402 0.329789 0.00977654 0.00971541 1.03809e-05 0.00974789 1.71596e-07 272.794 
-0.41 -0.77 -0.431604 0.0659785 0.00973962 0.00971741 2.77486e-06 0.00973292 1.71443e-07 272.618 
-0.35 -0.79 -0.309123 0.191526 0.00977761 0.00971694 1.36358e-05 0.00974522 1.71677e-07 272.59 
-0.39 -0.77 -0.226215 0.119692 0.00973824 0.00972111 7.59835e-07 0.00974282 1.7153e-07 272.757 
-0.43 -0.75 0.0986469 0.384469 0.00976172 0.00971305 -2.0127e-06 0.00973671 1.71384e-07 272.818 
-0.33 -0.79 -0.254725 0.350517 0.00976711 0.00970766 2.77416e-06 0.00972697 1.71463e-07 272.419 
-0.37 -0.77 -0.121163 0.277321 0.00974886 0.00971019 -1.4152e-06 0.00973599 1.71461e-07 272.675 
-0.41 -0.75 0.0517023 0.363164 0.00976245 0.00971185 2.5106e-06 0.00974745 1.71604e-07 272.769 
-0.35 -0.77 -0.307283 0.445327 0.00976702 0.00971868 5.99513e-06 0.00974527 1.71353e-07 273.107 
-0.39 -0.75 -0.252367 0.155924 0.00977034 0.00972377 2.61032e-06 0.00974826 1.71508e-07 272.944 
-0.49 -0.75 -0.0540483 0.0942865 0.00974197 0.0097186 8.52378e-07 0.00973483 1.71041e-07 273.312 
-0.47 -0.75 -0.116841 0.356884 0.00974938 0.00973069 -4.84962e-06 0.00973384 1.71121e-07 273.157 
-0.45 -0.75 -0.122983 0.653979 0.00975154 0.00971024 -1.57332e-06 0.00972513 1.71225e-07 272.747 
-0.49 -0.73 -0.0496072 0.310741 0.00977849 0.0097225 6.39838e-06 0.00975106 1.71287e-07 273.375 
-0.47 -0.73 -0.309749 0.369062 0.00976388 0.00973688 2.80798e-06 0.00974992 1.71277e-07 273.358 
-0.45 -0.73 -0.21685 0.34588 0.00975856 0.00970934 -7.43638e-06 0.0097357 1.71477e-07 272.641 
-0.49 -0.71 -0.0851914 0.466781 0.00977144 0.00972297 3.44413e-06 0.00974517 1.71447e-07 272.954 
-0.43 -0.73 -0.0389442 0.468829 0.00975343 0.00970918 -2.30412e-06 0.00973324 1.71404e-07 272.689 
-0.47 -0.71 -0.0840621 0.493476 0.00978108 0.00973469 3.81041e-06 0.0097561 1.71668e-07 272.909 
-0.37 -0.75 -0.29771 0.165601 0.00975001 0.00971074 8.61322e-06 0.00973265 1.71428e-07 272.635 
-0.41 -0.73 -0.012109 0.322078 0.00975884 0.00970904 -3.46129e-06 0.00974074 1.71608e-07 272.574 
-0.45 -0.71 0.140402 0.00661663 0.00977272 0.00972012 3.99649e-06 0.00974705 1.71558e-07 272.83 
-0.49 -0.69 -0.0406851 0.443951 0.00977146 0.00971843 -9.24587e-06 0.00974637 1.71499e-07 272.906 
-0.35 -0.75 0.0274843 0.330344 0.00973319 0.00970721 6.44967e-06 0.00972728 1.71299e-07 272.688 
-0.39 -0.73 0.0200997 0.218044 0.00975323 0.00971055 1.01149e-05 0.00973519 1.71256e-07 272.979 
-0.43 -0.71 -0.109327 0.399462 0.00976377 0.00971044 1.95523e-06 0.00974195 1.71549e-07 272.702 
-0.47 -0.69 0.198023 0.333309 0.0097705 0.00972211 3.15191e-06 0.00974975 1.71472e-07 273.042 
-0.37 -0.73 -0.0344858 0.187308 0.00976291 0.00971589 1.11894e-05 0.00974461 1.71574e-07 272.737 
-0.41 -0.71 0.19978 0.420705 0.00976426 0.00969422 -1.80384e-06 0.00973574 1.71724e-07 272.25 
-0.45 -0.69 -0.137181 0.308264 0.00978705 0.00972314 9.75568e-06 0.00975895 1.71777e-07 272.816 
-0.35 -0.73 -0.436427 0.385122 0.00976157 0.00970983 9.0595e-06 0.00974472 1.71471e-07 272.904 
-0.39 -0.71 0.019046 0.188814 0.00977114 0.00971392 9.54001e-07 0.00974413 1.71552e-07 272.758 
-0.43 -0.69 -0.240074 0.391453 0.00978937 0.00971849 4.65594e-06 0.00975976 1.72024e-07 272.446 
-0.33 -0.73 -0.462661 0.220817 0.00976348 0.00970673 1.10436e-05 0.00973831 1.71601e-07 272.517 
-0.37 -0.71 0.0484949 0.377318 0.00976236 0.00971241 1.53184e-05 0.00974578 1.71656e-07 272.64 
-0.41 -0.69 -0.137355 0.142195 0.00977562 0.0097011 -1.46478e-06 0.00973896 1.71696e-07 272.384 
-0.35 -0.71 -0.225944 0.632682 0.00976024 0.00970767 1.88924e-06 0.00975131 1.71723e-07 272.687 
-0.39 -0.69 -0.125223 0.326301 0.0097602 0.00969843 1.24547e-05 0.0097315 1.71487e-07 272.508 
-0.37 -0.69 -0.177521 0.511542 0.00976704 0.00970864 9.38594e-06 0.00974353 1.71478e-07 272.86 
-0.35 -0.69 -0.149647 0.758384 0.00976783 0.00971462 1.4945e-05 0.00974224 1.71464e-07 272.844 
-0.35 -0.67 -0.170016 0.660529 0.00977397 0.00973019 9.50628e-06 0.00974976 1.71464e-07 273.056 
-0.33 -0.67 -0.244685 0.781392 0.00975682 0.00969803 1.87487e-06 0.00974161 1.71557e-07 272.68 
-0.33 -0.75 0.105594 0.243019 0.00973669 0.00970896 9.5052e-06 0.00972855 1.71375e-07 272.604 
-0.31 -0.73 -0.48221 0.649392 0.00975815 0.00971593 4.15838e-06 0.00974013 1.71444e-07 272.818 
-0.29 -0.73 -0.44306 0.77361 0.00976239 0.00969768 6.39984e-06 0.00973638 1.71334e-07 272.889 
-0.33 -0.71 -0.441664 0.217471 0.00975865 0.0097088 1.10815e-05 0.00973953 1.71534e-07 272.658 
-0.27 -0.73 -0.523253 0.616583 0.00976731 0.00971794 1.06323e-05 0.00974692 1.71415e-07 273.054 
-0.31 -0.71 -0.38226 0.608782 0.00975637 0.00972133 1.16303e-05 0.0097412 1.71586e-07 272.622 
-0.29 -0.71 -0.341386 0.726396 0.00975002 0.00969402 7.76349e-06 0.00972915 1.71208e-07 272.886 
-0.33 -0.69 -0.226195 0.468763 0.00977871 0.00970356 -3.73126e-06 0.00974711 1.71723e-07 272.569 
-0.27 -0.71 -0.292531 0.551526 0.00975149 0.00970909 4.31234e-06 0.00973199 1.71214e-07 272.956 
-0.31 -0.69 -0.514851 0.510376 0.00978464 0.00972172 1.19072e-05 0.00976213 1.71866e-07 272.762 
-0.29 -0.69 -0.474377 0.651341 0.00977793 0.00970244 1.20189e-05 0.00974441 1.71591e-07 272.703 
-0.27 -0.69 -0.316257 0.566686 0.00977988 0.00971158 3.61811e-06 0.00974744 1.71315e-07 273.228 
-0.31 -0.67 -0.310559 0.67575 0.00975437 0.00970724 4.09845e-06 0.00973525 1.71549e-07 272.514 
-0.29 -0.67 -0.371292 0.485049 0.00976405 0.00971219 9.87738e-06 0.00974417 1.71515e-07 272.818 
-0.41 -0.83 -0.0901226 0.257266 0.00975553 0.00972491 -7.06136e-07 0.00974059 1.71588e-07 272.601 
-0.39 -0.83 -0.238214 0.48053 0.00975386 0.00973041 7.13806e-06 0.00973911 1.71422e-07 272.824 
-0.37 -0.83 -0.337885 0.327672 0.00974525 0.00971345 6.61442e-06 0.00973407 1.71374e-07 272.76 
-0.35 -0.83 -0.429942 0.178033 0.0097524 0.00971815 1.36538e-05 0.0097342 1.7136e-07 272.786 
-0.33 -0.83 -0.160307 0.259769 0.00975136 0.00971133 1.63044e-05 0.00972998 1.71131e-07 273.033 
-0.31 -0.83 -0.183405 -0.210384 0.00974746 0.00969876 1.34834e-05 0.00973212 1.71338e-07 272.761 
-0.29 -0.83 -0.530434 0.176507 0.00975935 0.00971768 1.6048e-05 0.00974794 1.71352e-07 273.183 
-0.27 -0.83 -0.550922 0.310679 0.00976163 0.00972108 4.91108e-06 0.00975082 1.71308e-07 273.334 
-0.27 -0.67 -0.417253 0.538196 0.00975387 0.00971471 1.62784e-05 0.00974351 1.71451e-07 272.901 
-0.25 -0.67 -0.367323 0.650718 0.00976288 0.00971657 7.12159e-07 0.00975378 1.71411e-07 273.253 
-0.25 -0.81 -0.51945 0.213628 0.00976321 0.00971086 2.88833e-06 0.00974519 1.71451e-07 272.948 
-0.25 -0.79 -0.494189 0.188286 0.00976511 0.00972554 1.76159e-05 0.00974776 1.71368e-07 273.153 
-0.35 -0.55 -0.211856 0.759284 0.0097837 0.00971407 5.38888e-06 0.00975321 1.71561e-07 272.998 
-0.39 -0.53 -0.0411349 0.959217 0.00978223 0.00969577 4.67451e-06 0.00974915 1.71594e-07 272.831 
-0.37 -0.57 -0.367634 0.645159 0.00978242 0.0097004 2.33205e-06 0.00975027 1.71524e-07 272.974 
-0.41 -0.55 -0.0276195 0.843025 0.00975993 0.00970366 -1.13558e-06 0.00973778 1.71449e-07 272.745 
-0.45 -0.53 -0.000823569 0.579033 0.00977065 0.00969584 -3.50965e-06 0.00972929 1.71385e-07 272.608 
-0.35 -0.57 -0.29303 0.575357 0.00978225 0.00970751 2.06046e-05 0.00974751 1.71555e-07 272.848 
-0.39 -0.55 -0.128928 0.901938 0.00976365 0.00969365 5.83236e-06 0.00974574 1.71424e-07 273.007 
-0.43 -0.53 -0.126732 0.651543 0.00977767 0.00969623 3.88515e-06 0.00973506 1.71576e-07 272.467 
-0.47 -0.51 -0.249598 0.616771 0.00976444 0.00969223 -2.50835e-06 0.00972721 1.7148e-07 272.399 
-0.37 -0.55 -0.178025 0.67926 0.00976036 0.00968176 4.61952e-06 0.00973337 1.71137e-07 273.118 
-0.41 -0.53 -0.131143 0.825674 0.00978469 0.00970451 -3.21922e-06 0.00974868 1.7158e-07 272.841 
-0.45 -0.51 -0.384306 0.697872 0.00976543 0.00969369 2.74236e-06 0.00973304 1.71483e-07 272.558 
-0.37 -0.53 -0.1218 0.754301 0.00978309 0.00968967 -2.12414e-07 0.00973816 1.71469e-07 272.722 
-0.41 -0.51 -0.331949 0.775507 0.00975497 0.00969922 -5.01935e-07 0.00972977 1.7136e-07 272.661 
-0.35 -0.53 -0.325844 0.850811 0.00976923 0.00970373 7.53612e-06 0.00973585 1.71455e-07 272.681 
-0.39 -0.51 -0.402302 0.802135 0.00976273 0.00969041 2.1458e-06 0.00972842 1.71414e-07 272.537 
-0.37 -0.51 -0.348253 0.929678 0.00976184 0.00968508 8.84071e-06 0.00972731 1.71336e-07 272.631 
-0.35 -0.51 -0.375406 0.796816 0.00976143 0.00970001 1.1932e-05 0.00972805 1.71357e-07 272.617 
-0.49 -0.65 0.107387 0.324447 0.00976739 0.00972336 9.92079e-06 0.00974849 1.71561e-07 272.866 
-0.47 -0.65 -0.173957 0.414175 0.00976607 0.00971976 5.83898e-06 0.00974969 1.71661e-07 272.741 
-0.45 -0.65 -0.086619 0.48747 0.00975978 0.00972769 3.03573e-06 0.00974949 1.71825e-07 272.474 
-0.49 -0.63 -0.0593654 0.33584 0.0097515 0.00972394 3.18186e-06 0.00974892 1.71819e-07 272.468 
-0.43 -0.65 0.0872564 0.743706 0.0097457 0.00969667 4.33623e-06 0.00973118 1.71422e-07 272.603 
-0.47 -0.63 -0.011812 0.559501 0.00975366 0.0097192 -3.58606e-06 0.00974309 1.71718e-07 272.466 
-0.41 -0.65 0.0157494 0.389819 0.00976229 0.00970244 1.05031e-05 0.00973947 1.7148e-07 272.742 
-0.45 -0.63 -0.0647493 0.527934 0.00976391 0.00972054 9.49368e-06 0.0097455 1.71661e-07 272.623 
-0.49 -0.61 -0.0219212 0.517112 0.00976638 0.0097168 -9.62979e-06 0.00974683 1.71663e-07 272.657 
-0.39 -0.65 -0.143951 0.283627 0.00976201 0.0097156 8.12225e-06 0.00974359 1.71383e-07 273.011 
-0.43 -0.63 -0.282766 0.611801 0.00977425 0.00970878 5.40929e-06 0.00974085 1.71355e-07 272.98 
-0.47 -0.61 -0.264047 0.578745 0.00976952 0.00972073 4.91889e-06 0.00974862 1.71649e-07 272.729 
-0.37 -0.65 -0.539458 0.520883 0.0097599 0.00969241 -4.5278e-07 0.00973097 1.71262e-07 272.851 
-0.41 -0.63 -0.292989 0.482443 0.00976696 0.00969236 2.66185e-06 0.00973352 1.71357e-07 272.772 
-0.45 -0.61 -0.340385 0.6838 0.00976632 0.00971823 -9.0959e-06 0.00974488 1.71507e-07 272.85 
-0.49 -0.59 -0.0801149 0.538816 0.00977312 0.00970345 -9.67663e-06 0.00974704 1.71608e-07 272.751 
-0.35 -0.65 -0.519349 0.466239 0.00976655 0.0097294 6.1569e-06 0.00975174 1.71707e-07 272.724 
-0.39 -0.63 -0.373756 0.591056 0.00977773 0.00971736 9.60014e-06 0.00974433 1.71551e-07 272.765 
-0.43 -0.61 -0.145144 0.70802 0.00977323 0.00970185 5.68487e-06 0.00973868 1.71264e-07 273.064 
-0.47 -0.59 -0.043262 0.73255 0.00977905 0.00972309 -6.27955e-06 0.00975663 1.71785e-07 272.737 
-0.37 -0.63 -0.426162 0.627856 0.00976353 0.0096975 8.32565e-06 0.00973506 1.71468e-07 272.637 
-0.41 -0.61 -0.378285 0.497238 0.00977391 0.00970944 6.24749e-06 0.00974021 1.71323e-07 273.013 
-0.45 -0.59 0.0147221 0.36794 0.00978223 0.00971462 -1.72073e-06 0.00975764 1.717e-07 272.901 
-0.49 -0.57 -0.0423621 0.504147 0.00978355 0.00970197 -1.29292e-05 0.00974117 1.71478e-07 272.793 
-0.35 -0.63 -0.538697 0.459041 0.00975991 0.00971414 6.7191e-06 0.0097369 1.71396e-07 272.803 
-0.39 -0.61 -0.268039 0.535061 0.009775 0.00969846 1.11746e-06 0.00973708 1.7126e-07 273.025 
-0.43 -0.59 -0.00011845 0.840085 0.00977519 0.00969729 3.39232e-06 0.00974443 1.7162e-07 272.658 
-0.47 -0.57 0.05044 0.597884 0.00977893 0.00972403 -9.55849e-06 0.00974894 1.71676e-07 272.696 
-0.37 -0.61 -0.241391 0.609719 0.00978161 0.00970956 1.10135e-05 0.00974647 1.71523e-07 272.869 
-0.41 -0.59 0.0367435 0.563407 0.00978229 0.00970907 -5.58746e-07 0.00974506 1.71484e-07 272.892 
-0.45 -0.57 0.0517426 0.560901 0.0097776 0.00970151 3.67775e-07 0.00974366 1.71434e-07 272.932 
-0.49 -0.55 -0.0182787 0.556566 0.00976519 0.00970352 -1.09619e-05 0.00973916 1.71484e-07 272.727 
-0.35 -0.61 -0.129324 0.539069 0.00977591 0.009704 7.95178e-06 0.00973696 1.71316e-07 272.933 
-0.39 -0.59 -0.11374 0.610612 0.00977707 0.00968427 3.77698e-06 0.00973654 1.71294e-07 272.957 
-0.43 -0.57 0.0723118 0.705254 0.00978166 0.00969841 -2.73543e-06 0.00974721 1.71419e-07 273.055 
-0.47 -0.55 -0.0264431 0.669157 0.00977828 0.00970747 -7.16431e-06 0.00974919 1.71719e-07 272.634 
-0.33 -0.61 -0.520083 0.617274 0.00977516 0.00970309 1.76153e-05 0.00974396 1.71335e-07 273.099 
-0.37 -0.59 -0.185335 0.476872 0.00977675 0.00971663 1.47903e-05 0.00974658 1.71498e-07 272.912 
-0.41 -0.57 -0.0449437 0.745831 0.00977932 0.00970672 1.28069e-05 0.00974427 1.71494e-07 272.854 
-0.45 -0.55 -0.140836 0.475355 0.00977266 0.00970076 8.1261e-07 0.00973232 1.71378e-07 272.704 
-0.49 -0.53 0.0389829 0.604904 0.0097755 0.00970452 -5.30809e-06 0.00974394 1.71555e-07 272.748 
-0.35 -0.59 -0.437511 0.697309 0.00977238 0.00969987 1.15113e-05 0.00973405 1.71467e-07 272.611 
-0.39 -0.57 -0.307788 0.810386 0.00977767 0.00968804 3.16579e-07 0.00974169 1.71347e-07 273.017 
-0.43 -0.55 -0.0320312 0.645469 0.00976356 0.00969451 6.41207e-06 0.00973763 1.71428e-07 272.773 
-0.47 -0.53 -0.0364538 0.548136 0.00976615 0.00969553 -5.27932e-06 0.00973269 1.71477e-07 272.557 
-0.29 -0.57 -0.54208 0.553933 0.00976846 0.00969813 2.17065e-05 0.00973585 1.71298e-07 272.93 
-0.33 -0.55 -0.532392 0.885207 0.00979514 0.00971284 9.64513e-06 0.00974997 1.71537e-07 272.945 
-0.29 -0.61 -0.350861 0.747028 0.00976333 0.00971063 4.04941e-06 0.00973837 1.7154e-07 272.616 
-0.33 -0.59 -0.35048 0.891568 0.00977244 0.00970598 8.12519e-06 0.00973764 1.71255e-07 273.049 
-0.27 -0.61 -0.404382 0.474137 0.00976697 0.00970658 1.51847e-05 0.0097384 1.71421e-07 272.806 
-0.31 -0.59 -0.643265 0.799388 0.00977363 0.00971208 1.27317e-05 0.00974233 1.71433e-07 272.897 
-0.29 -0.59 -0.382173 0.379237 0.00978288 0.00970852 1.4696e-05 0.00974559 1.71469e-07 272.931 
-0.33 -0.57 -0.352949 0.940007 0.00977472 0.0097064 9.36349e-06 0.00973691 1.71345e-07 272.885 
-0.27 -0.59 -0.2588 0.700747 0.00976898 0.00969291 1.82066e-05 0.0097321 1.7129e-07 272.839 
-0.31 -0.57 -0.249661 0.762983 0.00977516 0.00970879 2.62007e-06 0.00974101 1.7147e-07 272.801 
-0.27 -0.57 -0.729974 0.669801 0.00976718 0.00969895 2.80508e-05 0.00974624 1.71599e-07 272.743 
-0.31 -0.55 -0.259691 0.942972 0.00977564 0.0096989 2.50364e-05 0.00974368 1.71439e-07 272.926 
-0.29 -0.55 -0.398596 0.693178 0.00975817 0.00968314 2.44371e-05 0.0097235 1.71176e-07 272.778 
-0.33 -0.53 -0.118549 1.02236 0.00976111 0.00969372 1.65608e-05 0.00972646 1.71204e-07 272.816 
-0.27 -0.55 -0.358057 0.658572 0.00975868 0.00970345 1.96319e-05 0.00972692 1.71272e-07 272.721 
-0.31 -0.53 -0.274227 0.699447 0.00976353 0.00969982 3.06164e-05 0.00974073 1.71488e-07 272.765 
-0.29 -0.53 -0.310261 0.770336 0.00978324 0.00968863 2.69992e-05 0.00974439 1.71456e-07 272.918 
-0.33 -0.51 -0.26348 0.810253 0.00975353 0.00967874 2.37063e-05 0.00971945 1.71035e-07 272.89 
-0.27 -0.53 -0.486781 0.885177 0.00977295 0.00970339 2.79815e-05 0.00973606 1.71277e-07 272.969 
-0.31 -0.51 -0.115586 0.835458 0.00975287 0.00969844 2.05133e-05 0.00972421 1.71109e-07 272.905 
-0.29 -0.51 -0.205023 0.889316 0.00974391 0.00968574 2.39684e-05 0.00972695 1.71154e-07 272.91 
-0.27 -0.51 -0.341182 1.17129 0.00975686 0.0097046 3.04692e-05 0.00973673 1.71205e-07 273.104 
-0.33 -0.65 -0.342197 0.581667 0.0097717 0.00970171 1.37903e-05 0.00974837 1.71495e-07 272.967 
-0.31 -0.65 -0.220914 0.806375 0.00976755 0.0097091 1.06466e-05 0.00974478 1.71462e-07 272.92 
-0.29 -0.65 -0.456605 0.650949 0.00975433 0.00969586 1.15117e-05 0.00972963 1.71233e-07 272.859 
-0.33 -0.63 -0.405551 0.54911 0.00975485 0.00971042 9.73636e-06 0.00974266 1.71612e-07 272.621 
-0.27 -0.65 -0.492664 0.53794 0.00977022 0.00972474 7.58563e-06 0.00975075 1.71615e-07 272.843 
-0.31 -0.63 -0.601327 0.788367 0.00974884 0.00969653 1.15166e-05 0.00972801 1.71144e-07 272.955 
-0.25 -0.65 -0.572844 0.462955 0.00976267 0.00971438 7.4527e-06 0.00974622 1.71632e-07 272.689 
-0.29 -0.63 -0.572052 0.535547 0.00976617 0.0097124 9.1047e-06 0.00973853 1.71491e-07 272.698 
-0.27 -0.63 -0.556866 0.591905 0.00975447 0.00972035 8.50877e-06 0.00974103 1.71631e-07 272.546 
-0.31 -0.61 -0.484396 0.737721 0.00977901 0.00971144 1.07338e-05 0.00975054 1.71631e-07 272.811 
-0.49 -0.67 0.023134 0.400357 0.00977044 0.00971621 7.44147e-07 0.00974605 1.71403e-07 273.049 
-0.47 -0.67 0.0651038 0.195355 0.00976938 0.00972429 -3.29341e-06 0.00974304 1.71608e-07 272.638 
-0.45 -0.67 0.121975 0.617118 0.00976276 0.00971804 6.17124e-07 0.00974144 1.71571e-07 272.652 