ITEM: TIMESTEP
1062000
ITEM: NUMBER OF CELLS
5000
ITEM: BOX BOUNDS ss ss pp
-0.5 0.5
-1 1
-0.5 0.5
ITEM: CELLS xc yc f_U[*] f_V[*] f_Tau[1] f_Tau[2] f_Tau[3] f_Press[*] f_Mrho[*] f_Ttra[*] 
-0.49 -0.99 -0.0409027 0.0916145 0.009763 0.00973665 7.34798e-06 0.00974989 1.71487e-07 273.023 
-0.47 -0.99 -0.139803 0.0253858 0.00974922 0.00971895 5.88967e-06 0.00973809 1.71408e-07 272.818 
-0.45 -0.99 -0.250199 0.00353163 0.00975228 0.00972845 4.74054e-06 0.00974399 1.71408e-07 272.983 
-0.49 -0.97 -0.0541802 0.161347 0.00974709 0.00972454 9.80172e-06 0.0097351 1.71327e-07 272.863 
-0.43 -0.99 -0.276352 -0.0428426 0.00974731 0.00972037 2.76438e-06 0.0097376 1.71309e-07 272.962 
-0.47 -0.97 -0.0972416 0.0826656 0.00974951 0.00972269 1.21294e-05 0.00974019 1.71372e-07 272.934 
-0.41 -0.99 -0.0846479 -0.066861 0.00974334 0.00972453 8.33882e-07 0.00973801 1.713e-07 272.988 
-0.45 -0.97 -0.0447492 0.0585532 0.00974675 0.00973352 3.99357e-06 0.00974516 1.71441e-07 272.963 
-0.49 -0.95 0.0631878 0.106042 0.00973811 0.00971476 2.50114e-06 0.00973257 1.71277e-07 272.872 
-0.39 -0.99 -0.133205 0.0856579 0.00974584 0.00972726 1.32098e-06 0.00973787 1.71166e-07 273.198 
-0.43 -0.97 0.00853084 0.0455492 0.00974804 0.0097202 1.84778e-06 0.00973906 1.71312e-07 272.998 
-0.47 -0.95 0.096281 0.0933726 0.0097531 0.00972726 9.94062e-08 0.0097409 1.71387e-07 272.931 
-0.37 -0.99 -0.163491 -0.00462732 0.00974355 0.00972948 8.22255e-06 0.00973954 1.71319e-07 273 
-0.41 -0.97 -0.16722 -0.180281 0.00974493 0.0097246 3.93254e-06 0.00973752 1.71362e-07 272.876 
-0.45 -0.95 0.184474 -0.0365711 0.00975957 0.00973677 5.2736e-06 0.00975523 1.71604e-07 272.986 
-0.49 -0.93 -0.0204553 0.0435574 0.00976918 0.00972336 -2.49191e-07 0.00975042 1.7153e-07 272.969 
-0.35 -0.99 -0.129169 -0.0844398 0.00973721 0.00971124 3.73891e-06 0.00972181 1.71113e-07 272.831 
-0.39 -0.97 -0.0277027 0.0646677 0.00974239 0.009725 6.15775e-06 0.00974082 1.71445e-07 272.835 
-0.43 -0.95 0.125356 0.0444646 0.00975899 0.00971734 6.86758e-06 0.00974501 1.71456e-07 272.935 
-0.47 -0.93 0.0157153 0.0613731 0.00975866 0.00972268 7.99864e-07 0.00974501 1.71527e-07 272.823 
-0.33 -0.99 -0.0736729 0.0193145 0.00973545 0.00972977 6.99047e-06 0.0097305 1.71248e-07 272.859 
-0.37 -0.97 -0.0118345 -0.0329741 0.0097401 0.00972848 4.33889e-06 0.00974169 1.7135e-07 273.011 
-0.41 -0.95 0.0248117 0.0440245 0.00975706 0.00972667 2.95781e-06 0.00974275 1.71524e-07 272.764 
-0.45 -0.93 -0.0857283 0.0624982 0.00975522 0.00973068 5.61464e-06 0.0097451 1.71537e-07 272.81 
-0.49 -0.91 -0.0130934 0.162687 0.00977275 0.00972748 1.22823e-05 0.00975303 1.71477e-07 273.126 
-0.35 -0.97 -0.0416625 -0.0249976 0.00973812 0.00971351 1.07946e-05 0.00972998 1.71188e-07 272.94 
-0.39 -0.95 -0.156795 -0.0132753 0.0097534 0.00972383 7.08725e-06 0.00973869 1.71455e-07 272.76 
-0.43 -0.93 -0.0925734 0.0989381 0.00975344 0.00972266 1.83048e-06 0.00973601 1.71383e-07 272.8 
-0.47 -0.91 -0.220581 0.053691 0.00976565 0.00972515 7.06807e-06 0.0097459 1.7155e-07 272.811 
-0.33 -0.97 -0.124036 -0.00201143 0.00974287 0.00972571 5.96789e-06 0.00973955 1.71463e-07 272.772 
-0.37 -0.95 -0.131374 -0.0334868 0.0097542 0.00972261 1.19237e-05 0.00974251 1.7131e-07 273.099 
-0.41 -0.93 -0.0927674 0.0463199 0.00975207 0.00972159 1.01276e-05 0.00973148 1.71271e-07 272.851 
-0.45 -0.91 -0.0780412 0.0479814 0.00976536 0.00972448 5.47009e-06 0.00974997 1.71529e-07 272.958 
-0.49 -0.89 -0.00379627 0.13727 0.00977203 0.00972665 1.1753e-05 0.00975091 1.71468e-07 273.081 
-0.35 -0.95 -0.0685716 -0.00232216 0.00975379 0.00971889 3.84308e-06 0.00973915 1.71349e-07 272.941 
-0.39 -0.93 0.0179199 -0.0419878 0.00975035 0.00972309 7.72001e-06 0.00973951 1.71564e-07 272.61 
-0.43 -0.91 -0.160488 0.0664426 0.0097617 0.00972946 8.65067e-06 0.00974327 1.71346e-07 273.062 
-0.47 -0.89 0.100817 0.14666 0.00977143 0.0097326 8.81765e-06 0.00975075 1.7162e-07 272.835 
-0.37 -0.93 -0.000812748 0.00717106 0.00975499 0.00972348 2.56183e-06 0.00974494 1.71425e-07 272.983 
-0.41 -0.91 -0.0744512 0.00553088 0.00976675 0.00971312 3.00339e-06 0.00973854 1.71331e-07 272.954 
-0.45 -0.89 -0.0804277 0.159831 0.00976363 0.0097193 5.22808e-06 0.00974556 1.71452e-07 272.958 
-0.49 -0.87 -0.0329315 0.175364 0.0097512 0.00971548 -2.7515e-07 0.0097322 1.71262e-07 272.885 
-0.35 -0.93 -0.252445 0.0194855 0.00975908 0.00972098 9.06257e-06 0.00974032 1.7146e-07 272.798 
-0.39 -0.91 -0.0969424 -0.072384 0.00977141 0.00972903 1.14032e-05 0.00975374 1.71696e-07 272.798 
-0.43 -0.89 -0.15029 0.0198822 0.00976772 0.00973554 6.17057e-06 0.0097521 1.71475e-07 273.104 
-0.47 -0.87 0.0705909 0.107704 0.00976046 0.00973276 1.05267e-05 0.00974344 1.71416e-07 272.955 
-0.37 -0.91 -0.226076 0.199784 0.00975707 0.00972305 9.78307e-06 0.0097402 1.71618e-07 272.543 
-0.41 -0.89 -0.120526 -0.0342141 0.00976049 0.00971164 4.78727e-06 0.00974108 1.71494e-07 272.764 
-0.45 -0.87 -0.0980257 0.219618 0.009766 0.00972051 9.70227e-06 0.0097501 1.71504e-07 273.001 
-0.49 -0.85 -0.0650603 0.161216 0.00975262 0.00971529 -6.91091e-07 0.0097316 1.71214e-07 272.945 
-0.35 -0.91 -0.130648 0.100209 0.00974938 0.00972145 2.83887e-06 0.00973566 1.71407e-07 272.752 
-0.39 -0.89 -0.0840929 0.11942 0.00975341 0.00971716 1.02962e-05 0.0097423 1.71468e-07 272.841 
-0.43 -0.87 -0.109486 0.109705 0.00975418 0.0097354 1.13469e-05 0.00974907 1.71554e-07 272.893 
-0.47 -0.85 -0.159573 0.199035 0.00975407 0.00972213 2.22008e-06 0.00974321 1.71343e-07 273.064 
-0.33 -0.91 -0.191214 -0.0483094 0.00975537 0.00971926 1.11949e-05 0.00973997 1.71397e-07 272.888 
-0.37 -0.89 -0.162757 0.0865884 0.00976471 0.00973383 1.47255e-05 0.00975668 1.71697e-07 272.879 
-0.41 -0.87 -0.216809 -0.0622718 0.00975857 0.00971374 7.50515e-06 0.00973977 1.71532e-07 272.668 
-0.45 -0.85 -0.120219 0.208349 0.00975962 0.00971851 7.88071e-06 0.00974354 1.71344e-07 273.073 
-0.35 -0.89 -0.228752 0.129966 0.00976677 0.00971974 1.0275e-05 0.00974081 1.71473e-07 272.79 
-0.39 -0.87 -0.289793 0.128985 0.00976749 0.00971586 5.19792e-06 0.00974543 1.7158e-07 272.749 
-0.43 -0.85 -0.187473 0.156933 0.00977148 0.00973842 6.64764e-06 0.00975005 1.71644e-07 272.777 
-0.37 -0.87 -0.355946 0.196828 0.00977001 0.00972873 7.08805e-06 0.00975365 1.71659e-07 272.854 
-0.41 -0.85 -0.15483 0.0526351 0.00976944 0.0097166 8.9375e-06 0.00974507 1.71588e-07 272.726 
-0.35 -0.87 -0.302857 0.0736485 0.00976848 0.0097219 1.05549e-05 0.00974366 1.71475e-07 272.868 
-0.39 -0.85 -0.242334 0.298993 0.00976513 0.00971721 3.23408e-06 0.00974689 1.71581e-07 272.79 
-0.33 -0.87 -0.347384 0.122387 0.0097638 0.0097216 1.36777e-05 0.00974508 1.71543e-07 272.799 
-0.37 -0.85 -0.281666 0.0180794 0.00976492 0.00972242 9.4288e-06 0.00974668 1.71496e-07 272.919 
-0.35 -0.85 -0.25135 0.146733 0.00976447 0.00971838 1.25256e-05 0.00974248 1.71387e-07 272.974 
-0.33 -0.85 -0.380975 0.338854 0.00976508 0.00972387 1.36457e-05 0.00974268 1.71414e-07 272.936 
-0.31 -0.99 -0.0180207 -0.0360988 0.00973047 0.0097154 1.34891e-05 0.00972086 1.71183e-07 272.694 
-0.29 -0.99 -0.0898913 0.0414172 0.00972941 0.00971639 8.46651e-06 0.0097281 1.71168e-07 272.92 
-0.27 -0.99 -0.146793 0.0115916 0.00974312 0.00972587 6.81935e-06 0.00973446 1.71153e-07 273.122 
-0.31 -0.97 -0.371908 -0.00215147 0.00974901 0.00972096 6.99787e-06 0.00973693 1.71372e-07 272.842 
-0.29 -0.97 -0.436058 0.177907 0.00975543 0.00971942 7.61681e-06 0.00974712 1.7148e-07 272.957 
-0.33 -0.95 -0.0719682 0.11131 0.00975165 0.00972388 9.84285e-06 0.00973925 1.71347e-07 272.947 
-0.27 -0.97 -0.294427 -0.0989237 0.00974259 0.00971988 9.90864e-06 0.00973652 1.71337e-07 272.887 
-0.31 -0.95 -0.136467 0.189895 0.00974938 0.00972157 8.43974e-06 0.00973337 1.71311e-07 272.84 
-0.29 -0.95 -0.0945437 0.0805922 0.00974321 0.00971105 9.58358e-06 0.00972664 1.71253e-07 272.745 
-0.33 -0.93 -0.257185 0.146392 0.00975944 0.00971943 3.34223e-06 0.00973726 1.71345e-07 272.895 
-0.27 -0.95 -0.305118 -0.068657 0.00974943 0.0097263 6.4584e-06 0.00973854 1.71339e-07 272.94 
-0.31 -0.93 -0.0758961 0.0464982 0.00975994 0.00971881 9.1132e-06 0.0097407 1.71539e-07 272.683 
-0.29 -0.93 -0.170687 0.222226 0.0097642 0.00971546 1.07552e-05 0.0097422 1.71481e-07 272.817 
-0.27 -0.93 -0.177577 0.119668 0.00976223 0.00972313 8.00949e-06 0.00974505 1.71518e-07 272.838 
-0.31 -0.91 -0.220912 0.143689 0.00975647 0.00971801 9.70336e-06 0.00973908 1.71432e-07 272.808 
-0.29 -0.91 -0.255037 0.174756 0.00975482 0.0097149 2.07632e-06 0.00973315 1.71396e-07 272.699 
-0.33 -0.89 -0.256335 0.01945 0.00975855 0.00972125 5.45744e-06 0.00974192 1.71415e-07 272.914 
-0.27 -0.91 -0.117135 0.137499 0.00975825 0.00972202 6.29871e-06 0.00973894 1.7151e-07 272.68 
-0.31 -0.89 -0.217199 0.183106 0.00976092 0.00971991 3.59446e-06 0.00974456 1.71482e-07 272.882 
-0.29 -0.89 -0.195109 0.0500481 0.00975723 0.00971416 9.40304e-06 0.00973949 1.71321e-07 272.996 
-0.27 -0.89 -0.309387 0.240854 0.00975076 0.00971926 1.01387e-05 0.00974136 1.71452e-07 272.84 
-0.31 -0.87 -0.482151 0.182749 0.00975732 0.00971985 8.09622e-06 0.00973961 1.71442e-07 272.807 
-0.29 -0.87 -0.447548 0.108179 0.00975438 0.00970923 9.57814e-06 0.00973691 1.71299e-07 272.958 
-0.27 -0.87 -0.417551 0.244926 0.00975553 0.00971926 1.52922e-05 0.00974159 1.71402e-07 272.926 
-0.31 -0.85 -0.387595 0.0235137 0.00976237 0.00972307 1.63171e-05 0.00974652 1.71475e-07 272.948 
-0.29 -0.85 -0.28013 0.171874 0.00975381 0.00970758 1.32179e-05 0.00973888 1.71381e-07 272.884 
-0.27 -0.85 -0.330277 0.172705 0.00975289 0.00971683 1.17971e-05 0.00973804 1.71171e-07 273.194 
-0.25 -0.99 -0.250156 0.0906735 0.00974894 0.00973604 1.17423e-05 0.00974576 1.71397e-07 273.051 
-0.25 -0.97 -0.189201 0.0950228 0.00974143 0.00973006 8.02135e-06 0.00973975 1.71419e-07 272.848 
-0.25 -0.95 -0.394674 0.0852435 0.0097498 0.00973104 7.8466e-06 0.00974285 1.71399e-07 272.965 
-0.25 -0.93 -0.212351 0.0808319 0.00975915 0.00973316 1.12057e-05 0.00974424 1.7155e-07 272.765 
-0.25 -0.91 -0.260131 0.101149 0.00975859 0.00973062 1.01078e-05 0.00974664 1.71633e-07 272.7 
-0.25 -0.89 -0.34025 0.233538 0.0097475 0.00972317 1.45312e-05 0.00973636 1.71382e-07 272.811 
-0.25 -0.87 -0.426536 0.250731 0.00975121 0.00971907 1.61396e-05 0.0097388 1.71334e-07 272.956 
-0.25 -0.85 -0.257925 0.306734 0.00976174 0.00972157 1.08825e-05 0.00974614 1.71419e-07 273.026 
-0.25 -0.83 -0.3887 0.214865 0.00976403 0.00971858 7.50571e-06 0.00974614 1.71414e-07 273.034 
-0.33 -0.81 -0.133226 0.22928 0.0097606 0.00971156 1.22531e-05 0.00973908 1.71403e-07 272.854 
-0.31 -0.81 -0.233982 0.202981 0.00977542 0.00972402 1.33993e-05 0.00975243 1.71482e-07 273.102 
-0.29 -0.81 -0.219235 0.147531 0.00977955 0.00972331 9.33911e-06 0.00975444 1.7154e-07 273.066 
-0.27 -0.81 -0.309293 0.260833 0.00977667 0.00971947 1.28364e-05 0.00975419 1.7155e-07 273.043 
-0.31 -0.79 -0.256106 0.142827 0.0097602 0.00972066 6.23159e-06 0.00974047 1.71468e-07 272.79 
-0.29 -0.79 -0.29203 0.367958 0.00976064 0.00972062 1.25131e-05 0.00974 1.71498e-07 272.729 
-0.33 -0.77 -0.306413 0.338865 0.00976951 0.00972315 1.63551e-05 0.00974591 1.71514e-07 272.869 
-0.27 -0.79 -0.385913 0.237656 0.00976356 0.00971358 1.11104e-05 0.00974098 1.71436e-07 272.854 
-0.31 -0.77 -0.298368 0.143363 0.00976514 0.00971553 1.1673e-05 0.00974186 1.71498e-07 272.781 
-0.29 -0.77 -0.302562 0.336013 0.00975944 0.0097187 9.70488e-06 0.00974018 1.71532e-07 272.68 
-0.27 -0.77 -0.308261 0.216828 0.00975827 0.00971143 8.28714e-06 0.00973795 1.71388e-07 272.846 
-0.31 -0.75 -0.188463 0.371944 0.00976764 0.00971967 1.23104e-05 0.00974871 1.71628e-07 272.765 
-0.29 -0.75 -0.451122 0.309949 0.00976714 0.00972129 1.29741e-05 0.00974889 1.71601e-07 272.814 
-0.27 -0.75 -0.509821 0.483542 0.00976605 0.00970767 1.85359e-05 0.00973464 1.71344e-07 272.823 
-0.49 -0.83 0.00614151 0.254009 0.00975583 0.00971576 -9.78809e-07 0.00973571 1.71306e-07 272.913 
-0.47 -0.83 -0.120734 0.216643 0.00975793 0.00971822 2.00167e-06 0.00973912 1.71559e-07 272.607 
-0.45 -0.83 -0.134276 0.241589 0.00975764 0.00972284 -5.12582e-07 0.00974252 1.7143e-07 272.907 
-0.49 -0.81 -0.0527719 0.291129 0.00976742 0.00972013 1.14352e-06 0.00974286 1.71489e-07 272.822 
-0.43 -0.83 -0.118771 0.232791 0.00975663 0.00972232 4.79231e-06 0.00974058 1.71419e-07 272.87 
-0.47 -0.81 -0.126842 0.249265 0.00976379 0.00971678 -2.20727e-07 0.00974444 1.71531e-07 272.8 
-0.45 -0.81 -0.0617635 0.235228 0.00976757 0.00972423 2.00201e-06 0.00974526 1.71502e-07 272.87 
-0.49 -0.79 -0.0361619 0.475662 0.00975862 0.0097202 3.35245e-06 0.00973809 1.71383e-07 272.857 
-0.43 -0.81 -0.0299002 0.253863 0.00976258 0.00971297 4.96125e-06 0.00974021 1.71576e-07 272.61 
-0.47 -0.79 -0.0132066 0.149642 0.00975785 0.00971966 -4.82892e-06 0.00974079 1.71433e-07 272.854 
-0.41 -0.81 -0.201342 0.171071 0.0097649 0.00972613 1.00568e-05 0.00975102 1.71572e-07 272.919 
-0.45 -0.79 -0.0619287 0.240309 0.00975754 0.0097157 3.10812e-06 0.00973521 1.71426e-07 272.708 
-0.49 -0.77 0.0832606 0.366239 0.00975813 0.00972283 6.10824e-06 0.00974194 1.71379e-07 272.972 
-0.39 -0.81 -0.284631 0.207814 0.00975895 0.0097157 1.35362e-05 0.00974331 1.7155e-07 272.738 
-0.43 -0.79 -0.294585 0.335733 0.0097658 0.00971153 4.60534e-06 0.00973732 1.71509e-07 272.636 
-0.47 -0.77 0.0393332 0.286136 0.00975689 0.0097252 3.03031e-06 0.00974278 1.71436e-07 272.905 
-0.37 -0.81 -0.0618923 0.117229 0.00975727 0.00971888 1.13516e-05 0.00973888 1.71543e-07 272.625 
-0.41 -0.79 -0.260621 0.268131 0.00976833 0.00972435 8.62992e-06 0.00975004 1.7166e-07 272.751 
-0.45 -0.77 -0.212002 0.433629 0.00975651 0.00971169 -4.30119e-06 0.00973386 1.71409e-07 272.698 
-0.35 -0.81 -0.0386811 0.188336 0.00975173 0.00971299 5.98857e-06 0.00973673 1.71408e-07 272.78 
-0.39 -0.79 -0.195322 0.137872 0.00976539 0.00971224 8.73363e-06 0.00973929 1.71543e-07 272.637 
-0.43 -0.77 -0.190501 0.39276 0.00975557 0.00970891 1.61933e-06 0.00973277 1.71414e-07 272.66 
-0.37 -0.79 -0.283588 0.105485 0.0097736 0.00971873 1.18954e-05 0.00974395 1.71562e-07 272.737 
-0.41 -0.77 -0.194477 0.119351 0.00975645 0.00971289 9.41921e-06 0.00973473 1.71361e-07 272.799 
-0.35 -0.79 -0.232971 0.156386 0.00977423 0.00971696 1.32532e-05 0.00974662 1.71572e-07 272.796 
-0.39 -0.77 -0.115031 0.151564 0.00975866 0.00972161 1.21364e-05 0.00974524 1.71594e-07 272.723 
-0.43 -0.75 0.0573978 0.195601 0.00976748 0.00970708 -1.67481e-06 0.00974105 1.71462e-07 272.815 
-0.33 -0.79 -0.270618 0.295079 0.00976391 0.00971445 5.89188e-06 0.00973992 1.71424e-07 272.843 
-0.37 -0.77 -0.130931 0.208044 0.0097594 0.00971661 2.88867e-06 0.00973813 1.71454e-07 272.745 
-0.41 -0.75 -0.0317209 0.309649 0.00977005 0.00970486 6.36808e-06 0.00974444 1.71611e-07 272.673 
-0.35 -0.77 -0.356918 0.251827 0.00976762 0.00971443 8.15257e-06 0.00974078 1.71435e-07 272.851 
-0.39 -0.75 -0.207879 0.19246 0.00977427 0.00972487 7.85541e-06 0.00975133 1.71701e-07 272.723 
-0.49 -0.75 -0.0360552 0.255612 0.00976736 0.00972751 5.63321e-06 0.00975159 1.71517e-07 273.022 
-0.47 -0.75 -0.066146 0.501487 0.00976515 0.00973011 5.06929e-06 0.00974526 1.71432e-07 272.98 
-0.45 -0.75 -0.0942025 0.50297 0.00976415 0.00971117 1.73306e-08 0.00973426 1.71441e-07 272.659 
-0.49 -0.73 -0.111616 0.445984 0.00977044 0.00972015 5.91019e-06 0.00974731 1.71465e-07 272.985 
-0.47 -0.73 -0.235412 0.468517 0.0097753 0.00973903 2.66294e-06 0.00975501 1.71473e-07 273.188 
-0.45 -0.73 -0.14156 0.277273 0.00977499 0.00971598 -4.06968e-06 0.00974228 1.71418e-07 272.92 
-0.49 -0.71 -0.029077 0.610299 0.00977421 0.00971995 -1.54793e-06 0.00974687 1.71543e-07 272.85 
-0.43 -0.73 -0.103104 0.350043 0.00976494 0.00970243 3.07062e-06 0.00973634 1.7139e-07 272.798 
-0.47 -0.71 -0.0622176 0.491789 0.00977566 0.00973687 1.25385e-06 0.0097558 1.715e-07 273.168 
-0.37 -0.75 -0.210486 0.159248 0.00976842 0.00971928 9.98883e-06 0.00974112 1.71553e-07 272.672 
-0.41 -0.73 -0.20161 0.33423 0.00976614 0.00970003 3.71064e-07 0.00973681 1.71546e-07 272.563 
-0.45 -0.71 0.0010498 0.230079 0.0097666 0.00971473 8.43105e-06 0.00974077 1.71315e-07 273.041 
-0.49 -0.69 0.0527077 0.588441 0.00976779 0.00971718 -7.02686e-06 0.00974494 1.71458e-07 272.931 
-0.35 -0.75 -0.0442122 0.255583 0.00976091 0.00971011 8.19369e-06 0.00973553 1.71392e-07 272.772 
-0.39 -0.73 -0.201055 0.215902 0.009772 0.00971634 1.07607e-05 0.00974372 1.7152e-07 272.798 
-0.43 -0.71 -0.189061 0.351861 0.00976651 0.00970715 3.41682e-06 0.00973956 1.71559e-07 272.618 
-0.47 -0.69 0.155069 0.429145 0.00976938 0.00972588 4.47533e-06 0.00974941 1.71419e-07 273.118 
-0.37 -0.73 -0.301355 0.189376 0.00977449 0.00972474 1.07395e-05 0.00974821 1.71604e-07 272.789 
-0.41 -0.71 -0.132485 0.434623 0.00976848 0.00969435 -1.39616e-07 0.00973541 1.71643e-07 272.37 
-0.45 -0.69 -0.0571181 0.396913 0.00977775 0.00971393 8.19379e-06 0.00974862 1.71519e-07 272.936 
-0.35 -0.73 -0.537172 0.369474 0.00977262 0.00971068 9.92921e-06 0.00974555 1.71589e-07 272.739 
-0.39 -0.71 -0.191428 0.221411 0.00976792 0.00971697 8.53528e-07 0.00974012 1.71515e-07 272.705 
-0.43 -0.69 -0.108408 0.41258 0.00977817 0.00971605 7.86823e-06 0.00975088 1.7173e-07 272.664 
-0.33 -0.73 -0.353149 0.196603 0.00977125 0.00970677 1.43504e-05 0.00973978 1.71563e-07 272.619 
-0.37 -0.71 -0.124945 0.22212 0.00977109 0.00971789 1.31479e-05 0.00974665 1.71589e-07 272.769 
-0.41 -0.69 -0.0928081 0.335176 0.00976964 0.00970072 9.08891e-07 0.00973581 1.71576e-07 272.487 
-0.35 -0.71 -0.251603 0.481841 0.00977062 0.00970673 9.83382e-06 0.00974586 1.71559e-07 272.795 
-0.39 -0.69 -0.111576 0.369893 0.00976258 0.00970431 4.95805e-06 0.00973443 1.71393e-07 272.74 
-0.37 -0.69 -0.328337 0.299942 0.00976231 0.00971499 9.8522e-06 0.00974239 1.71529e-07 272.746 
-0.35 -0.69 -0.26227 0.504068 0.00976306 0.00970444 1.20702e-05 0.00973457 1.714e-07 272.733 
-0.35 -0.67 -0.271052 0.418838 0.00977099 0.00971412 1.14835e-05 0.00974407 1.71498e-07 272.842 
-0.33 -0.67 -0.397066 0.581516 0.00975636 0.00970403 8.63426e-06 0.009739 1.71486e-07 272.72 
-0.33 -0.75 -0.113537 0.279018 0.0097611 0.00971455 1.07484e-05 0.00973729 1.71408e-07 272.795 
-0.31 -0.73 -0.423565 0.484526 0.00976781 0.00972391 1.11848e-05 0.00974971 1.71577e-07 272.874 
-0.29 -0.73 -0.371729 0.464807 0.00977224 0.00971381 1.42314e-05 0.00975018 1.71534e-07 272.956 
-0.33 -0.71 -0.511741 0.164296 0.00976835 0.00971118 1.45387e-05 0.00974206 1.71494e-07 272.792 
-0.27 -0.73 -0.494007 0.568511 0.00976609 0.00971526 1.82797e-05 0.0097452 1.71454e-07 272.944 
-0.31 -0.71 -0.367511 0.490049 0.00976668 0.00972335 1.52178e-05 0.00974797 1.71539e-07 272.887 
-0.29 -0.71 -0.46453 0.465235 0.00975921 0.00970741 1.69133e-05 0.00973958 1.71312e-07 273.013 
-0.33 -0.69 -0.271458 0.308518 0.00977494 0.00971234 6.88913e-06 0.00974708 1.71659e-07 272.67 
-0.27 -0.71 -0.395392 0.475127 0.00976544 0.00971361 1.23702e-05 0.00974166 1.71346e-07 273.017 
-0.31 -0.69 -0.559785 0.48493 0.00977891 0.00971649 1.60773e-05 0.00975056 1.71573e-07 272.904 
-0.29 -0.69 -0.545945 0.574199 0.00977799 0.0097128 1.93165e-05 0.0097502 1.71519e-07 272.981 
-0.27 -0.69 -0.562531 0.384872 0.00977411 0.00971817 1.34633e-05 0.0097458 1.71386e-07 273.069 
-0.31 -0.67 -0.434575 0.579645 0.00975551 0.00971241 1.26404e-05 0.00973844 1.71448e-07 272.765 
-0.29 -0.67 -0.426886 0.465938 0.0097627 0.00971234 1.59677e-05 0.00974134 1.71307e-07 273.07 
-0.41 -0.83 -0.190458 0.0455502 0.00975795 0.00972395 9.72001e-06 0.00974207 1.7155e-07 272.703 
-0.39 -0.83 -0.187217 0.292384 0.00975592 0.00971859 5.92894e-06 0.00973578 1.71458e-07 272.673 
-0.37 -0.83 -0.223603 0.207515 0.0097513 0.00971809 5.52029e-06 0.00973537 1.71302e-07 272.911 
-0.35 -0.83 -0.325936 0.086659 0.00975607 0.00971366 1.59426e-05 0.00973522 1.71368e-07 272.802 
-0.33 -0.83 -0.214985 0.328994 0.00975724 0.00972396 1.43013e-05 0.00973857 1.71273e-07 273.046 
-0.31 -0.83 -0.145554 -0.0919903 0.00975218 0.00971472 1.93157e-05 0.00974127 1.71453e-07 272.836 
-0.29 -0.83 -0.267317 0.214122 0.00975874 0.00971907 1.6656e-05 0.00974515 1.71338e-07 273.127 
-0.27 -0.83 -0.30684 0.285379 0.00976135 0.00971766 7.22852e-06 0.00974649 1.71402e-07 273.064 
-0.27 -0.67 -0.456137 0.500994 0.0097628 0.00972053 1.85122e-05 0.00974384 1.71391e-07 273.006 
-0.25 -0.67 -0.532084 0.424864 0.00976841 0.00971652 1.20478e-05 0.00974949 1.71404e-07 273.143 
-0.25 -0.81 -0.282318 0.343881 0.00976394 0.00971645 7.18732e-06 0.0097445 1.71416e-07 272.985 
-0.25 -0.79 -0.283561 0.233341 0.00976954 0.00972313 2.00555e-05 0.00974459 1.71447e-07 272.939 
-0.35 -0.55 -0.205656 0.787446 0.00978346 0.00970897 6.26428e-06 0.0097454 1.71461e-07 272.939 
-0.39 -0.53 -0.254107 0.863073 0.00977686 0.00969339 5.11773e-06 0.00973751 1.71448e-07 272.739 
-0.37 -0.57 -0.254972 0.759993 0.00976968 0.00970267 1.08097e-05 0.00974339 1.71321e-07 273.106 
-0.41 -0.55 -0.223115 0.928648 0.0097627 0.00969888 7.01358e-06 0.00973745 1.7141e-07 272.796 
-0.45 -0.53 -0.0991363 0.590389 0.00976129 0.00969622 -3.59829e-06 0.00972843 1.713e-07 272.719 
-0.35 -0.57 -0.220819 0.759055 0.0097768 0.00970203 1.74071e-05 0.00974346 1.7147e-07 272.87 
-0.39 -0.55 -0.313283 0.704144 0.00976499 0.00969098 4.25353e-06 0.00973658 1.71367e-07 272.841 
-0.43 -0.53 -0.201745 0.906684 0.00976734 0.00969106 2.63595e-06 0.00973158 1.71418e-07 272.619 
-0.47 -0.51 -0.0352158 0.788556 0.00977314 0.00970244 -2.24343e-06 0.00974092 1.71532e-07 272.7 
-0.37 -0.55 -0.239541 0.733268 0.00976856 0.0096949 9.26788e-06 0.00973858 1.71277e-07 273.04 
-0.41 -0.53 -0.257206 0.751394 0.00977367 0.00969953 4.70352e-06 0.00973684 1.71462e-07 272.697 
-0.45 -0.51 -0.265282 0.715589 0.00977035 0.00969294 2.86074e-06 0.00973628 1.71468e-07 272.671 
-0.37 -0.53 -0.312041 0.709689 0.00977965 0.00969765 -1.54879e-06 0.00974103 1.71516e-07 272.729 
-0.41 -0.51 -0.278995 0.809027 0.00976371 0.0096989 -1.84986e-06 0.00973383 1.71364e-07 272.769 
-0.35 -0.53 -0.374619 0.766418 0.00977587 0.00970368 8.12428e-06 0.00974192 1.71484e-07 272.805 
-0.39 -0.51 -0.376196 0.851753 0.00977179 0.00969399 -1.05844e-06 0.00973422 1.71443e-07 272.654 
-0.37 -0.51 -0.368451 0.720554 0.00977131 0.00969178 3.30429e-06 0.00973169 1.71316e-07 272.784 
-0.35 -0.51 -0.413563 0.830441 0.00976884 0.00969856 9.66173e-06 0.00972756 1.71329e-07 272.649 
-0.49 -0.65 -0.0471858 0.48493 0.00977398 0.00972259 7.38147e-06 0.00975062 1.71515e-07 272.999 
-0.47 -0.65 -0.0791511 0.402829 0.00977056 0.00971463 -1.20604e-08 0.00974779 1.71465e-07 273 
-0.45 -0.65 -0.0402344 0.625979 0.00976539 0.00971617 6.95064e-06 0.00974574 1.71618e-07 272.698 
-0.49 -0.63 0.0447675 0.437909 0.00976957 0.00972527 2.86864e-06 0.00975259 1.71742e-07 272.693 
-0.43 -0.65 0.000744545 0.585838 0.00975784 0.0096989 5.51261e-06 0.0097354 1.71427e-07 272.713 
-0.47 -0.63 0.0408318 0.519926 0.00976496 0.00970805 2.35175e-06 0.00974283 1.71577e-07 272.683 
-0.41 -0.65 0.00578618 0.555096 0.00976316 0.00970605 1.01099e-05 0.00973811 1.7146e-07 272.735 
-0.45 -0.63 -0.044007 0.617121 0.00977124 0.00971631 8.34681e-06 0.00974857 1.71622e-07 272.771 
-0.49 -0.61 -0.03671 0.535796 0.00975695 0.0097109 -4.55026e-06 0.00974003 1.71389e-07 272.903 
-0.39 -0.65 -0.116939 0.442261 0.00975913 0.00971452 8.20338e-06 0.00973855 1.71315e-07 272.979 
-0.43 -0.63 -0.0977284 0.603405 0.00977559 0.00970675 8.05475e-06 0.0097426 1.71315e-07 273.093 
-0.47 -0.61 -0.118748 0.485938 0.009764 0.00971228 7.74238e-06 0.00974329 1.71459e-07 272.882 
-0.37 -0.65 -0.253942 0.459744 0.0097576 0.00969959 3.12182e-06 0.00972641 1.71116e-07 272.955 
-0.41 -0.63 -0.140839 0.614248 0.00977039 0.0096955 2.98478e-06 0.00973535 1.71357e-07 272.823 
-0.45 -0.61 -0.08762 0.673335 0.00976343 0.00970861 -2.87736e-06 0.00973863 1.71375e-07 272.885 
-0.49 -0.59 0.00867463 0.498881 0.00976957 0.00970552 -6.37201e-06 0.00974626 1.71629e-07 272.696 
-0.35 -0.65 -0.321562 0.463965 0.00976582 0.00971155 1.2538e-05 0.00973725 1.71399e-07 272.81 
-0.39 -0.63 -0.10992 0.518816 0.00977801 0.00971866 1.30312e-05 0.00974865 1.71534e-07 272.913 
-0.43 -0.61 -0.0171273 0.654583 0.0097713 0.00970941 4.26205e-06 0.00974182 1.71369e-07 272.984 
-0.47 -0.59 0.0882988 0.550286 0.00977705 0.00971124 -5.85146e-06 0.00974596 1.71485e-07 272.916 
-0.37 -0.63 -0.212041 0.493903 0.00976569 0.0096999 1.18304e-05 0.00973159 1.71239e-07 272.905 
-0.41 -0.61 -0.128239 0.572781 0.00977133 0.00969869 1.05628e-05 0.00973527 1.71276e-07 272.95 
-0.45 -0.59 0.0698649 0.527301 0.00977787 0.00971097 2.73224e-06 0.00974976 1.71486e-07 273.022 
-0.49 -0.57 -0.0541043 0.47976 0.00978095 0.00971138 -3.91278e-06 0.00974981 1.71552e-07 272.916 
-0.35 -0.63 -0.378204 0.567955 0.00975824 0.00970022 1.21576e-05 0.00972978 1.71276e-07 272.795 
-0.39 -0.61 -0.146228 0.475618 0.00976902 0.00970606 8.21318e-06 0.00973824 1.71341e-07 272.928 
-0.43 -0.59 -0.0461618 0.774381 0.00976899 0.00969944 5.7134e-06 0.00974307 1.71495e-07 272.819 
-0.47 -0.57 -0.116926 0.488023 0.00976947 0.00970481 -5.45348e-06 0.00973486 1.71323e-07 272.864 
-0.37 -0.61 -0.202199 0.6882 0.00977326 0.00970536 1.47241e-05 0.00973957 1.71486e-07 272.735 
-0.41 -0.59 -0.0826015 0.635021 0.00977451 0.00970115 5.51852e-06 0.00973771 1.71384e-07 272.846 
-0.45 -0.57 -0.129536 0.674722 0.00976844 0.00970129 2.39944e-06 0.00973702 1.71356e-07 272.87 
-0.49 -0.55 -0.0663379 0.627494 0.00975283 0.00970587 -5.85351e-06 0.00973217 1.71284e-07 272.849 
-0.35 -0.61 -0.215612 0.627474 0.00977117 0.00970027 1.24334e-05 0.00973241 1.71342e-07 272.763 
-0.39 -0.59 -0.140467 0.610769 0.00977115 0.0096932 9.62342e-06 0.00973594 1.71326e-07 272.888 
-0.43 -0.57 -0.00658595 0.769549 0.00977297 0.00969906 6.63388e-06 0.00974091 1.71376e-07 272.947 
-0.47 -0.55 -0.18725 0.648506 0.00976374 0.00969561 7.32935e-07 0.00973444 1.7141e-07 272.712 
-0.33 -0.61 -0.404837 0.600013 0.00976472 0.00970084 1.72142e-05 0.00973486 1.71263e-07 272.958 
-0.37 -0.59 -0.216115 0.669963 0.00977508 0.00971291 1.91099e-05 0.00974676 1.71528e-07 272.87 
-0.41 -0.57 -0.0943498 0.690093 0.00976623 0.00969885 1.16345e-05 0.00973692 1.7126e-07 273.021 
-0.45 -0.55 -0.210438 0.557038 0.00976274 0.00970146 3.3747e-06 0.00973158 1.71275e-07 272.847 
-0.49 -0.53 0.0262809 0.700812 0.00976239 0.00969668 -4.38759e-06 0.0097365 1.71307e-07 272.935 
-0.35 -0.59 -0.364061 0.730279 0.00976749 0.00969521 1.51019e-05 0.00972806 1.71344e-07 272.639 
-0.39 -0.57 -0.220055 0.760562 0.00976832 0.00968833 1.0088e-05 0.00973414 1.71192e-07 273.052 
-0.43 -0.55 -0.211488 0.647046 0.00976077 0.00969256 8.91871e-06 0.00973231 1.71359e-07 272.735 
-0.47 -0.53 -0.0355964 0.63017 0.00975552 0.00969693 1.00963e-06 0.00972591 1.71199e-07 272.809 
-0.29 -0.57 -0.571756 0.703298 0.00977496 0.00971488 1.8688e-05 0.00974787 1.71471e-07 272.992 
-0.33 -0.55 -0.41259 0.884226 0.00978405 0.00971 8.83559e-06 0.00974945 1.71485e-07 273.013 
-0.29 -0.61 -0.383789 0.631728 0.0097692 0.00971826 1.11342e-05 0.0097442 1.7159e-07 272.7 
-0.33 -0.59 -0.334327 0.814719 0.00976699 0.00970528 1.4567e-05 0.00973805 1.7133e-07 272.941 
-0.27 -0.61 -0.433105 0.563382 0.0097785 0.00971305 1.44066e-05 0.00974577 1.71583e-07 272.754 
-0.31 -0.59 -0.433156 0.653095 0.00976868 0.00971117 1.09078e-05 0.00973888 1.71395e-07 272.86 
-0.29 -0.59 -0.397246 0.53519 0.00977607 0.00972103 1.05475e-05 0.00974631 1.71559e-07 272.808 
-0.33 -0.57 -0.352354 0.756292 0.00978083 0.00971342 9.22221e-06 0.00974757 1.71383e-07 273.124 
-0.27 -0.59 -0.471801 0.686524 0.00976942 0.00970668 1.36363e-05 0.00973936 1.71493e-07 272.718 
-0.31 -0.57 -0.397223 0.715708 0.00978106 0.00970844 6.24589e-06 0.00974503 1.71507e-07 272.855 
-0.27 -0.57 -0.637887 0.718167 0.00976765 0.00970591 2.3718e-05 0.00974599 1.71528e-07 272.848 
-0.31 -0.55 -0.404044 0.9354 0.00977537 0.00971019 1.79952e-05 0.00974497 1.7143e-07 272.975 
-0.29 -0.55 -0.547357 0.682445 0.00976379 0.00969661 2.15208e-05 0.00973221 1.71207e-07 272.974 
-0.33 -0.53 -0.290876 1.07625 0.00977399 0.00969856 1.31578e-05 0.00973838 1.71346e-07 272.924 
-0.27 -0.55 -0.419493 0.597173 0.00976731 0.00971279 2.11863e-05 0.009742 1.71418e-07 272.911 
-0.31 -0.53 -0.409967 0.837287 0.00977219 0.00970481 2.33682e-05 0.00974186 1.71487e-07 272.798 
-0.29 -0.53 -0.297131 0.673624 0.00978235 0.00970222 1.92438e-05 0.00974648 1.71465e-07 272.963 
-0.33 -0.51 -0.275043 0.938401 0.00976545 0.00969111 1.59592e-05 0.00972958 1.71123e-07 273.034 
-0.27 -0.53 -0.485238 0.76372 0.00977911 0.00971099 2.27548e-05 0.00974239 1.71488e-07 272.811 
-0.31 -0.51 -0.276404 0.903023 0.00976937 0.00970475 1.72356e-05 0.00973308 1.7133e-07 272.802 
-0.29 -0.51 -0.457786 0.837323 0.00976324 0.00969997 2.28583e-05 0.00973806 1.7143e-07 272.782 
-0.27 -0.51 -0.561801 0.955374 0.00976056 0.00970405 2.77746e-05 0.0097372 1.71364e-07 272.862 
-0.33 -0.65 -0.343047 0.475011 0.0097665 0.00970719 1.7913e-05 0.00973709 1.71307e-07 272.95 
-0.31 -0.65 -0.230939 0.605188 0.00976478 0.00971385 1.3612e-05 0.00974144 1.71363e-07 272.984 
-0.29 -0.65 -0.390452 0.55953 0.00975818 0.00970379 1.29491e-05 0.00973306 1.71226e-07 272.967 
-0.33 -0.63 -0.347393 0.514317 0.0097639 0.00971092 9.72304e-06 0.00974033 1.71392e-07 272.906 
-0.27 -0.65 -0.458266 0.518804 0.00976739 0.00972384 1.24932e-05 0.00974618 1.71481e-07 272.928 
-0.31 -0.63 -0.523642 0.670184 0.00976239 0.00970609 1.76837e-05 0.00973834 1.71303e-07 272.992 
-0.25 -0.65 -0.573482 0.450746 0.00976291 0.00971474 1.44615e-05 0.00974099 1.71471e-07 272.799 
-0.29 -0.63 -0.544192 0.518813 0.00976819 0.00971738 1.33135e-05 0.00974317 1.71492e-07 272.826 
-0.27 -0.63 -0.4818 0.591418 0.0097568 0.00971527 1.41872e-05 0.00973618 1.71448e-07 272.701 
-0.31 -0.61 -0.462059 0.637359 0.00977045 0.00971164 1.43912e-05 0.00974445 1.71539e-07 272.788 
-0.49 -0.67 0.06189 0.499901 0.00976795 0.00971632 -5.35766e-06 0.00974233 1.71465e-07 272.846 
-0.47 -0.67 0.0555424 0.393375 0.00976632 0.00972086 -2.75675e-07 0.00974463 1.71475e-07 272.895 
-0.45 -0.67 0.136882 0.560214 0.00976485 0.00971398 3.00311e-06 0.00974578 1.71513e-07 272.867 
-0.43 -0.67 -0.0859132 0.552101 0.00977026 0.00970853 5.17352e-06 0.0097435 1.71553e-07 272.74 