ITEM: TIMESTEP
1024000
ITEM: NUMBER OF CELLS
5000
ITEM: BOX BOUNDS ss ss pp
-0.5 0.5
-1 1
-0.5 0.5
ITEM: CELLS xc yc f_U[*] f_V[*] f_Tau[1] f_Tau[2] f_Tau[3] f_Press[*] f_Mrho[*] f_Ttra[*] 
-0.49 -0.99 -0.0502658 0.130248 0.00976637 0.00973508 1.02103e-05 0.00975037 1.71569e-07 272.906 
-0.47 -0.99 -0.191416 0.0131745 0.00975219 0.00971803 8.00959e-06 0.00973794 1.71437e-07 272.767 
-0.45 -0.99 -0.284507 0.0146106 0.00975227 0.0097319 6.15238e-06 0.00974665 1.71474e-07 272.952 
-0.49 -0.97 -0.0756369 0.184559 0.00974562 0.00972493 1.18977e-05 0.00973428 1.71349e-07 272.805 
-0.43 -0.99 -0.297606 -0.0618551 0.00974323 0.00972322 4.77507e-06 0.00973923 1.71334e-07 272.968 
-0.47 -0.97 -0.123332 0.136456 0.00974537 0.00971996 1.5226e-05 0.0097377 1.71366e-07 272.874 
-0.41 -0.99 -0.131974 -0.0766472 0.00973915 0.00973005 2.05897e-07 0.00973904 1.7133e-07 272.969 
-0.45 -0.97 -0.0737707 0.00833739 0.00974596 0.00973591 7.57442e-06 0.0097458 1.71447e-07 272.972 
-0.49 -0.95 0.0490764 0.161429 0.00973361 0.00971199 4.6205e-06 0.00973124 1.71223e-07 272.921 
-0.39 -0.99 -0.143548 0.0701148 0.00974317 0.00972885 1.40235e-06 0.00973599 1.71165e-07 273.146 
-0.43 -0.97 0.0145623 0.0519453 0.00975014 0.00972793 3.44435e-06 0.00974425 1.7139e-07 273.019 
-0.47 -0.95 0.122945 0.123916 0.00975034 0.0097281 1.74387e-06 0.00973916 1.71371e-07 272.908 
-0.37 -0.99 -0.171117 -0.0234785 0.00974198 0.00972802 9.48699e-06 0.00973678 1.71287e-07 272.973 
-0.41 -0.97 -0.166999 -0.180568 0.00974433 0.00972859 4.75077e-06 0.00973866 1.71356e-07 272.917 
-0.45 -0.95 0.22739 -0.125798 0.00975792 0.00973892 7.58838e-06 0.00975517 1.71602e-07 272.988 
-0.49 -0.93 0.0199604 0.0938251 0.00976578 0.00972014 2.87035e-07 0.00974662 1.71456e-07 272.98 
-0.35 -0.99 -0.083048 -0.0938117 0.0097336 0.00970775 6.42095e-06 0.00971758 1.71029e-07 272.847 
-0.39 -0.97 -0.0641731 0.0260438 0.00974 0.00972555 6.70169e-06 0.00973784 1.71403e-07 272.819 
-0.43 -0.95 0.152372 0.0612643 0.00975788 0.00972586 8.78326e-06 0.00974724 1.71537e-07 272.869 
-0.47 -0.93 0.0651547 0.0119517 0.00975956 0.00972588 1.50169e-06 0.00974476 1.71495e-07 272.867 
-0.33 -0.99 -0.0317862 0.0490314 0.00973511 0.00972821 6.26421e-06 0.00972852 1.71241e-07 272.816 
-0.37 -0.97 0.0133966 -0.0825158 0.00973778 0.00972829 5.39129e-06 0.00973945 1.71326e-07 272.987 
-0.41 -0.95 0.0666453 0.077963 0.00975728 0.00973069 4.24098e-06 0.00974496 1.71529e-07 272.817 
-0.45 -0.93 -0.0453908 0.0621113 0.00975599 0.0097323 4.57931e-06 0.00974516 1.71509e-07 272.856 
-0.49 -0.91 0.0113677 0.15825 0.00977196 0.00972488 1.09916e-05 0.00975174 1.71455e-07 273.126 
-0.35 -0.97 -0.0213028 -0.0197794 0.00973739 0.00971062 1.03183e-05 0.00973017 1.71183e-07 272.955 
-0.39 -0.95 -0.128643 -0.0896858 0.00975172 0.00972572 7.13559e-06 0.00973902 1.71475e-07 272.737 
-0.43 -0.93 -0.0817855 0.0667292 0.009756 0.00972887 2.8571e-06 0.00973942 1.71426e-07 272.827 
-0.47 -0.91 -0.19125 0.0358829 0.00976288 0.00972582 6.98482e-06 0.00974339 1.71501e-07 272.818 
-0.33 -0.97 -0.129406 0.0058514 0.00974266 0.00972558 3.75884e-06 0.00973926 1.71447e-07 272.789 
-0.37 -0.95 -0.123851 -0.0831137 0.00975456 0.00972089 1.25859e-05 0.00974204 1.71301e-07 273.099 
-0.41 -0.93 -0.0458715 0.097365 0.00975395 0.00972688 1.32879e-05 0.00973515 1.7132e-07 272.876 
-0.45 -0.91 -0.0435201 0.0403349 0.00976318 0.00972827 6.26228e-06 0.00975112 1.71537e-07 272.978 
-0.49 -0.89 -0.0251664 0.104945 0.00976437 0.00972479 9.81102e-06 0.00974633 1.71425e-07 273.022 
-0.35 -0.95 -0.0661372 0.0153697 0.00975643 0.00971997 3.80941e-06 0.00974297 1.71413e-07 272.947 
-0.39 -0.93 0.0537653 -0.0762876 0.00975231 0.00972761 8.15936e-06 0.00974187 1.71608e-07 272.605 
-0.43 -0.91 -0.102103 0.0357661 0.00975616 0.00973147 8.92998e-06 0.00974155 1.71326e-07 273.046 
-0.47 -0.89 0.122077 0.12315 0.00976563 0.00973127 9.21258e-06 0.00974796 1.71565e-07 272.845 
-0.37 -0.93 -0.022045 0.0153271 0.00975319 0.00972189 2.19354e-06 0.00974385 1.71404e-07 272.986 
-0.41 -0.91 -0.0343043 0.00115555 0.00976559 0.00972161 4.82813e-06 0.0097431 1.7141e-07 272.956 
-0.45 -0.89 -0.059622 0.147708 0.00975926 0.00972285 4.26566e-06 0.0097432 1.71425e-07 272.935 
-0.49 -0.87 -0.0264515 0.141768 0.00974951 0.00971496 -5.01596e-07 0.00973296 1.71331e-07 272.797 
-0.35 -0.93 -0.367863 0.0671966 0.00975486 0.00972225 8.62816e-06 0.00973856 1.71438e-07 272.783 
-0.39 -0.91 -0.0907832 -0.0323849 0.00977046 0.00973266 1.167e-05 0.00975431 1.7174e-07 272.744 
-0.43 -0.89 -0.109763 0.0263876 0.00976826 0.00973976 5.51975e-06 0.0097541 1.71514e-07 273.098 
-0.47 -0.87 0.0591302 0.107839 0.00975756 0.00973154 7.9835e-06 0.00974108 1.71383e-07 272.942 
-0.37 -0.91 -0.200314 0.242445 0.00975899 0.00972282 1.13026e-05 0.00974126 1.71636e-07 272.544 
-0.41 -0.89 -0.159339 -0.0297454 0.00976078 0.00971622 2.16703e-06 0.00974304 1.71513e-07 272.789 
-0.45 -0.87 -0.0826731 0.114427 0.00976561 0.00972374 8.99233e-06 0.00975146 1.71519e-07 273.016 
-0.49 -0.85 -0.0434215 0.14086 0.00975549 0.00971395 -1.28199e-07 0.00973416 1.71272e-07 272.925 
-0.35 -0.91 -0.109486 0.174424 0.00975128 0.00972289 3.62321e-06 0.00973695 1.7144e-07 272.736 
-0.39 -0.89 -0.100151 0.164988 0.00975619 0.00972148 1.13049e-05 0.00974676 1.71546e-07 272.841 
-0.43 -0.87 -0.0672621 0.155131 0.00975178 0.00974049 1.02115e-05 0.00975053 1.71571e-07 272.907 
-0.47 -0.85 -0.160281 0.208989 0.00975893 0.00972575 5.52449e-07 0.00974682 1.71394e-07 273.085 
-0.33 -0.91 -0.182994 -0.0312085 0.00975203 0.00971682 1.26277e-05 0.00973787 1.71429e-07 272.779 
-0.37 -0.89 -0.234395 0.11384 0.00976288 0.00973249 1.78355e-05 0.00975431 1.7166e-07 272.871 
-0.41 -0.87 -0.189652 0.00506051 0.00975327 0.00971789 7.38568e-06 0.00973688 1.71474e-07 272.679 
-0.45 -0.85 -0.125558 0.156062 0.00976025 0.00971938 8.55044e-06 0.00974441 1.71394e-07 273.018 
-0.35 -0.89 -0.22647 0.183409 0.00976468 0.00972171 1.13354e-05 0.00973946 1.71458e-07 272.776 
-0.39 -0.87 -0.300003 0.150859 0.00976034 0.00971611 6.13279e-06 0.00974299 1.71516e-07 272.784 
-0.43 -0.85 -0.236913 0.15219 0.00976948 0.00974201 9.27314e-06 0.00975054 1.71662e-07 272.762 
-0.37 -0.87 -0.34706 0.238421 0.00976751 0.00972927 8.97408e-06 0.0097506 1.7157e-07 272.911 
-0.41 -0.85 -0.168822 0.116574 0.00976895 0.00972209 9.37866e-06 0.00974898 1.71661e-07 272.721 
-0.35 -0.87 -0.318581 0.127051 0.00976846 0.00972361 1.17681e-05 0.00974397 1.71447e-07 272.92 
-0.39 -0.85 -0.273586 0.369717 0.0097682 0.00971734 1.06149e-06 0.00974903 1.71568e-07 272.87 
-0.33 -0.87 -0.381754 0.112798 0.00976695 0.00972266 1.30406e-05 0.00974695 1.71522e-07 272.884 
-0.37 -0.85 -0.332888 0.0866206 0.00976918 0.00972373 7.44072e-06 0.0097463 1.71497e-07 272.907 
-0.35 -0.85 -0.295168 0.195284 0.00976554 0.00972056 1.29969e-05 0.0097431 1.71341e-07 273.065 
-0.33 -0.85 -0.415347 0.269241 0.0097651 0.00972319 1.37043e-05 0.00974082 1.714e-07 272.907 
-0.31 -0.99 0.0445238 -0.0349239 0.00973144 0.00971392 1.45352e-05 0.00972101 1.71212e-07 272.651 
-0.29 -0.99 -0.0710157 0.0842691 0.0097325 0.0097178 9.96341e-06 0.00972953 1.7122e-07 272.878 
-0.27 -0.99 -0.152723 0.00598172 0.00974253 0.00972858 6.73953e-06 0.00973325 1.71141e-07 273.108 
-0.31 -0.97 -0.3653 -0.0360896 0.00974928 0.0097194 5.57053e-06 0.00973584 1.71403e-07 272.763 
-0.29 -0.97 -0.380268 0.224367 0.00975687 0.00971846 9.86844e-06 0.00974749 1.71539e-07 272.872 
-0.33 -0.95 -0.064801 0.13433 0.00975079 0.0097223 8.90596e-06 0.00973836 1.71364e-07 272.895 
-0.27 -0.97 -0.298578 -0.0703872 0.00974693 0.00972341 1.06236e-05 0.00973933 1.71381e-07 272.896 
-0.31 -0.95 -0.200502 0.229466 0.00974785 0.00971948 7.4099e-06 0.00973251 1.71371e-07 272.72 
-0.29 -0.95 -0.179493 0.0630659 0.00974357 0.00970742 7.92922e-06 0.00972511 1.71281e-07 272.657 
-0.33 -0.93 -0.316814 0.167393 0.00975857 0.00971765 3.36652e-06 0.00973712 1.7131e-07 272.947 
-0.27 -0.95 -0.269089 -0.0337021 0.00974954 0.00972989 8.04702e-06 0.00974287 1.71385e-07 272.988 
-0.31 -0.93 -0.0913204 0.099767 0.00975846 0.0097179 1.06085e-05 0.00973877 1.71568e-07 272.583 
-0.29 -0.93 -0.134915 0.184784 0.00975784 0.00970943 9.3622e-06 0.00973534 1.71433e-07 272.701 
-0.27 -0.93 -0.179044 0.0992659 0.00975718 0.00972368 1.0163e-05 0.00974316 1.71505e-07 272.806 
-0.31 -0.91 -0.215258 0.16803 0.00975206 0.00971559 1.03039e-05 0.00973733 1.71454e-07 272.724 
-0.29 -0.91 -0.205829 0.0823476 0.00975045 0.0097108 3.075e-06 0.00972975 1.71366e-07 272.651 
-0.33 -0.89 -0.236916 0.022671 0.00975721 0.00972195 8.51691e-06 0.00974185 1.71417e-07 272.909 
-0.27 -0.91 -0.0550209 0.15024 0.0097543 0.00971928 6.80021e-06 0.00973415 1.71442e-07 272.653 
-0.31 -0.89 -0.221185 0.156644 0.00976044 0.0097174 4.12049e-06 0.00974692 1.71545e-07 272.846 
-0.29 -0.89 -0.220956 0.0356333 0.00975754 0.00971034 8.19401e-06 0.00974023 1.71335e-07 272.995 
-0.27 -0.89 -0.339353 0.251575 0.00975192 0.00971638 9.32619e-06 0.00974218 1.71427e-07 272.902 
-0.31 -0.87 -0.428778 0.202102 0.00975785 0.00971873 7.77168e-06 0.00973836 1.71451e-07 272.757 
-0.29 -0.87 -0.431162 0.0365876 0.00975362 0.00970645 9.20872e-06 0.00973655 1.71318e-07 272.917 
-0.27 -0.87 -0.404038 0.235027 0.00975445 0.00971777 1.42414e-05 0.00974113 1.71399e-07 272.917 
-0.31 -0.85 -0.386461 -0.0277714 0.00976487 0.00972251 1.78462e-05 0.00974589 1.71502e-07 272.887 
-0.29 -0.85 -0.248932 0.153609 0.00975499 0.0097053 1.33809e-05 0.00973966 1.71384e-07 272.9 
-0.27 -0.85 -0.277709 0.140815 0.00975383 0.00971636 9.90329e-06 0.00973858 1.71187e-07 273.183 
-0.25 -0.99 -0.26976 0.0894893 0.00974572 0.00973407 1.20254e-05 0.00974205 1.71359e-07 273.008 
-0.25 -0.97 -0.167792 0.118324 0.00974797 0.00972865 7.21135e-06 0.00974076 1.71487e-07 272.767 
-0.25 -0.95 -0.415348 0.0946139 0.00974606 0.00972903 1.09925e-05 0.00974009 1.71381e-07 272.917 
-0.25 -0.93 -0.160216 0.112233 0.00975767 0.00973234 1.39995e-05 0.00974369 1.71544e-07 272.758 
-0.25 -0.91 -0.255476 0.14169 0.00975667 0.00972929 1.11703e-05 0.00974526 1.7158e-07 272.744 
-0.25 -0.89 -0.307806 0.19832 0.00975095 0.00972264 1.40527e-05 0.00973833 1.7135e-07 272.917 
-0.25 -0.87 -0.424663 0.236328 0.00974941 0.00971713 1.49627e-05 0.00973783 1.7128e-07 273.014 
-0.25 -0.85 -0.23862 0.335886 0.00976152 0.0097178 1.06988e-05 0.00974581 1.7138e-07 273.079 
-0.25 -0.83 -0.424782 0.245117 0.00975869 0.0097122 8.77798e-06 0.00974242 1.71331e-07 273.062 
-0.33 -0.81 -0.0792159 0.217132 0.00976246 0.00971158 1.41444e-05 0.00974014 1.71438e-07 272.828 
-0.31 -0.81 -0.193783 0.135122 0.00977773 0.00972324 1.45726e-05 0.00975414 1.7148e-07 273.154 
-0.29 -0.81 -0.262223 0.13035 0.009779 0.00972391 1.12193e-05 0.00975532 1.71524e-07 273.115 
-0.27 -0.81 -0.341556 0.319049 0.00977267 0.00971651 1.27551e-05 0.00975162 1.7145e-07 273.13 
-0.31 -0.79 -0.274855 0.163964 0.00975597 0.00971857 8.1801e-06 0.00973891 1.71421e-07 272.821 
-0.29 -0.79 -0.381786 0.356437 0.00975998 0.0097198 1.30687e-05 0.00973905 1.71464e-07 272.756 
-0.33 -0.77 -0.333304 0.347193 0.00976989 0.00972412 1.78484e-05 0.00974559 1.71482e-07 272.91 
-0.27 -0.79 -0.44135 0.242971 0.00976389 0.00971354 1.58361e-05 0.00974201 1.71424e-07 272.902 
-0.31 -0.77 -0.298817 0.204394 0.00976458 0.0097157 1.26813e-05 0.00974371 1.71504e-07 272.823 
-0.29 -0.77 -0.296716 0.354777 0.00975538 0.00971591 1.17924e-05 0.00973899 1.71523e-07 272.66 
-0.27 -0.77 -0.364542 0.249984 0.0097539 0.00971038 1.1356e-05 0.00973762 1.71383e-07 272.845 
-0.31 -0.75 -0.166668 0.391289 0.00976063 0.00971865 1.37332e-05 0.00974842 1.71586e-07 272.825 
-0.29 -0.75 -0.490203 0.366748 0.00976136 0.00971823 1.5857e-05 0.00974772 1.71571e-07 272.828 
-0.27 -0.75 -0.454009 0.467995 0.00976294 0.009709 1.7971e-05 0.00973606 1.71324e-07 272.895 
-0.49 -0.83 -0.0684473 0.298428 0.00975247 0.00971758 -2.67614e-06 0.00973603 1.71356e-07 272.843 
-0.47 -0.83 -0.161425 0.178538 0.00975226 0.00972095 1.85115e-06 0.00973795 1.71575e-07 272.549 
-0.45 -0.83 -0.195816 0.216323 0.00975384 0.00972035 1.15814e-07 0.00973983 1.71455e-07 272.791 
-0.49 -0.81 -0.0148034 0.353689 0.00976123 0.00971965 -7.12672e-07 0.00974229 1.71486e-07 272.812 
-0.43 -0.83 -0.139338 0.179098 0.00975618 0.00972804 4.74065e-06 0.00974287 1.71517e-07 272.778 
-0.47 -0.81 -0.108009 0.23168 0.00976062 0.00971992 -1.02604e-06 0.00974379 1.71486e-07 272.853 
-0.45 -0.81 -0.078242 0.202577 0.0097658 0.00972412 8.61565e-07 0.00974357 1.71489e-07 272.842 
-0.49 -0.79 -0.00948869 0.488793 0.00976024 0.00972151 3.68419e-06 0.00974202 1.71437e-07 272.883 
-0.43 -0.81 -0.127912 0.257501 0.00976217 0.00971697 2.41062e-06 0.00974249 1.71624e-07 272.598 
-0.47 -0.79 -0.0106348 0.144657 0.00975566 0.00972119 -6.37683e-06 0.00974206 1.71415e-07 272.918 
-0.41 -0.81 -0.261854 0.214705 0.00976476 0.00973354 1.15956e-05 0.00975475 1.71616e-07 272.954 
-0.45 -0.79 -0.0587005 0.251196 0.00975569 0.00971795 2.24069e-06 0.00973424 1.71405e-07 272.714 
-0.49 -0.77 0.0582394 0.377592 0.00975848 0.00972303 4.78147e-06 0.00974526 1.71415e-07 273.007 
-0.39 -0.81 -0.27148 0.239609 0.00975493 0.00971579 1.52825e-05 0.00974289 1.71583e-07 272.675 
-0.43 -0.79 -0.313169 0.418257 0.00976422 0.00971627 2.28565e-06 0.00973974 1.7152e-07 272.686 
-0.47 -0.77 -0.00237135 0.33141 0.00975744 0.00972767 3.55564e-06 0.009746 1.71414e-07 273.03 
-0.37 -0.81 -0.0364926 0.140014 0.00975367 0.0097171 9.69254e-06 0.00973535 1.71517e-07 272.568 
-0.41 -0.79 -0.34713 0.289855 0.00976627 0.00972502 7.61355e-06 0.00974934 1.71663e-07 272.727 
-0.45 -0.77 -0.3153 0.482168 0.00975601 0.00971414 -5.13366e-06 0.00973676 1.71416e-07 272.767 
-0.35 -0.81 -0.00684762 0.218667 0.00974808 0.00971395 5.79182e-06 0.00973815 1.71422e-07 272.797 
-0.39 -0.79 -0.219654 0.132287 0.00976986 0.00971722 1.02154e-05 0.00974482 1.71681e-07 272.573 
-0.43 -0.77 -0.243652 0.433769 0.00975289 0.00971426 8.38269e-07 0.00973591 1.71453e-07 272.685 
-0.37 -0.79 -0.235105 0.0964817 0.00977859 0.00971773 1.16006e-05 0.00974792 1.71593e-07 272.798 
-0.41 -0.77 -0.201632 0.114846 0.0097539 0.0097137 7.51237e-06 0.00973586 1.71414e-07 272.746 
-0.35 -0.79 -0.158895 0.143063 0.00977618 0.00971704 1.50147e-05 0.00974895 1.71635e-07 272.762 
-0.39 -0.77 -0.0723145 0.129633 0.00975444 0.00972303 1.08341e-05 0.00974484 1.71598e-07 272.706 
-0.43 -0.75 0.0531279 0.171713 0.00976556 0.00971414 -2.86613e-06 0.00974365 1.71486e-07 272.85 
-0.33 -0.79 -0.191055 0.294038 0.00975956 0.00971333 5.71103e-06 0.00973609 1.71418e-07 272.746 
-0.37 -0.77 -0.118204 0.177707 0.00975701 0.00971346 4.29204e-06 0.00973655 1.71437e-07 272.729 
-0.41 -0.75 -0.0132299 0.31999 0.00976688 0.0097049 5.93627e-06 0.00974301 1.71535e-07 272.754 
-0.35 -0.77 -0.352124 0.238177 0.00976498 0.00971455 9.37847e-06 0.00973817 1.71363e-07 272.893 
-0.39 -0.75 -0.245751 0.156168 0.00977278 0.00972433 6.17018e-06 0.00975258 1.71686e-07 272.781 
-0.49 -0.75 -0.0357488 0.339297 0.00976372 0.00972855 8.45302e-06 0.00974956 1.7145e-07 273.072 
-0.47 -0.75 -0.0453489 0.504314 0.00976183 0.0097329 4.96775e-06 0.00974307 1.71335e-07 273.074 
-0.45 -0.75 -0.0576008 0.592932 0.00976058 0.00971191 -1.02045e-07 0.00973274 1.71451e-07 272.599 
-0.49 -0.73 -0.0950058 0.509158 0.00977265 0.00972202 6.63632e-06 0.00974715 1.71418e-07 273.056 
-0.47 -0.73 -0.207985 0.440222 0.00977551 0.00974247 5.09391e-06 0.0097542 1.71468e-07 273.174 
-0.45 -0.73 -0.0649288 0.335214 0.00977516 0.00971832 -5.36015e-06 0.00974201 1.71471e-07 272.828 
-0.49 -0.71 0.0199382 0.600155 0.00977398 0.00972182 1.06177e-06 0.00974576 1.71549e-07 272.809 
-0.43 -0.73 -0.0400191 0.367016 0.00976408 0.00970708 5.13683e-06 0.00973758 1.71389e-07 272.833 
-0.47 -0.71 -0.00636113 0.504794 0.00977449 0.00974052 1.91689e-06 0.00975515 1.71513e-07 273.129 
-0.37 -0.75 -0.189503 0.112342 0.00976302 0.00971375 1.2216e-05 0.00973737 1.71466e-07 272.705 
-0.41 -0.73 -0.0920741 0.338944 0.00976206 0.00970199 -4.76567e-07 0.0097382 1.71524e-07 272.636 
-0.45 -0.71 0.0433128 0.241145 0.00976442 0.00971918 1.01307e-05 0.00974101 1.71368e-07 272.963 
-0.49 -0.69 0.0428867 0.525091 0.00976471 0.00971882 -6.28127e-06 0.00974318 1.71458e-07 272.881 
-0.35 -0.75 -0.054539 0.295678 0.00975602 0.00971074 1.03738e-05 0.00973484 1.71367e-07 272.792 
-0.39 -0.73 -0.139308 0.198208 0.0097638 0.00971138 1.16656e-05 0.00973976 1.71402e-07 272.874 
-0.43 -0.71 -0.105603 0.364384 0.00976317 0.0097086 3.75771e-06 0.00973904 1.71558e-07 272.606 
-0.47 -0.69 0.144598 0.467969 0.00977089 0.00972895 4.93407e-06 0.0097504 1.71473e-07 273.06 
-0.37 -0.73 -0.326974 0.170226 0.00976967 0.0097207 1.25362e-05 0.00974487 1.71525e-07 272.821 
-0.41 -0.71 -0.0889814 0.473525 0.00976746 0.00969694 2.70422e-06 0.00973885 1.71658e-07 272.443 
-0.45 -0.69 -0.0404668 0.41433 0.00977961 0.00971945 1.13677e-05 0.00975299 1.71632e-07 272.879 
-0.35 -0.73 -0.573704 0.418303 0.0097679 0.00971179 1.03101e-05 0.00974358 1.71572e-07 272.71 
-0.39 -0.71 -0.175119 0.248519 0.0097674 0.00971396 2.48245e-06 0.00973946 1.71493e-07 272.722 
-0.43 -0.69 -0.143426 0.493187 0.00977944 0.00971712 8.74487e-06 0.00975508 1.7184e-07 272.608 
-0.33 -0.73 -0.42058 0.137438 0.00976775 0.00970632 1.5476e-05 0.00974014 1.71582e-07 272.599 
-0.37 -0.71 -0.122383 0.269908 0.00976739 0.00971479 1.38385e-05 0.00974508 1.71559e-07 272.773 
-0.41 -0.69 -0.121895 0.347459 0.00976971 0.00970218 4.28198e-06 0.00973803 1.71617e-07 272.485 
-0.35 -0.71 -0.236925 0.499459 0.00976669 0.00970625 1.05344e-05 0.00974453 1.71572e-07 272.738 
-0.39 -0.69 -0.0892751 0.407105 0.00976247 0.00970383 7.51637e-06 0.00973551 1.714e-07 272.759 
-0.37 -0.69 -0.312867 0.349064 0.00976094 0.00971172 1.25421e-05 0.00973976 1.71475e-07 272.758 
-0.35 -0.69 -0.286225 0.539584 0.00976263 0.00970354 1.33335e-05 0.00973307 1.71343e-07 272.781 
-0.35 -0.67 -0.226759 0.441209 0.00977323 0.00971627 1.07252e-05 0.00974431 1.7148e-07 272.877 
-0.33 -0.67 -0.306473 0.497626 0.0097587 0.00970267 8.48523e-06 0.00974014 1.71524e-07 272.691 
-0.33 -0.75 -0.0988557 0.245029 0.00975663 0.00971554 1.24426e-05 0.00973602 1.71361e-07 272.834 
-0.31 -0.73 -0.428313 0.494959 0.00976744 0.00972437 1.49099e-05 0.0097505 1.71578e-07 272.894 
-0.29 -0.73 -0.290968 0.485454 0.00977128 0.00971079 1.4225e-05 0.00975106 1.71554e-07 272.948 
-0.33 -0.71 -0.488305 0.106677 0.00976447 0.00970998 1.49128e-05 0.00974007 1.71482e-07 272.756 
-0.27 -0.73 -0.425004 0.501541 0.00976579 0.00971818 1.90903e-05 0.00974982 1.71471e-07 273.047 
-0.31 -0.71 -0.371146 0.400003 0.0097649 0.00972296 1.52018e-05 0.00974745 1.71549e-07 272.855 
-0.29 -0.71 -0.450805 0.443395 0.00975975 0.00970701 1.94631e-05 0.0097411 1.71335e-07 273.018 
-0.33 -0.69 -0.318419 0.267831 0.00977416 0.00971138 5.47091e-06 0.00974525 1.7167e-07 272.603 
-0.27 -0.71 -0.409626 0.511045 0.0097639 0.0097128 1.33836e-05 0.00974062 1.71293e-07 273.072 
-0.31 -0.69 -0.548386 0.383536 0.00977628 0.00971514 1.55782e-05 0.00975017 1.71588e-07 272.87 
-0.29 -0.69 -0.486796 0.533892 0.0097775 0.00971404 1.78182e-05 0.00975176 1.71579e-07 272.929 
-0.27 -0.69 -0.530194 0.413282 0.00977831 0.0097173 1.50789e-05 0.00974774 1.7135e-07 273.181 
-0.31 -0.67 -0.399818 0.463628 0.00975918 0.00971061 1.32107e-05 0.00973923 1.71482e-07 272.732 
-0.29 -0.67 -0.445461 0.403264 0.00976532 0.0097135 1.55231e-05 0.00974239 1.71327e-07 273.067 
-0.41 -0.83 -0.18783 0.18357 0.00975866 0.00973171 8.20382e-06 0.00974707 1.7161e-07 272.748 
-0.39 -0.83 -0.187492 0.355978 0.00975701 0.00971772 5.48349e-06 0.00973348 1.71421e-07 272.668 
-0.37 -0.83 -0.208494 0.25655 0.00974981 0.00971579 7.03885e-06 0.00973234 1.71264e-07 272.886 
-0.35 -0.83 -0.263966 0.0967925 0.00975685 0.00971858 1.71325e-05 0.00973703 1.7135e-07 272.88 
-0.33 -0.83 -0.175497 0.309697 0.00975464 0.00972163 1.51393e-05 0.00973746 1.71247e-07 273.057 
-0.31 -0.83 -0.145073 -0.193514 0.00974731 0.00971189 1.9508e-05 0.00973763 1.71437e-07 272.76 
-0.29 -0.83 -0.21967 0.173744 0.0097555 0.00972017 1.73822e-05 0.0097467 1.71322e-07 273.197 
-0.27 -0.83 -0.360731 0.291259 0.00975611 0.00971626 6.0672e-06 0.00974459 1.71348e-07 273.095 
-0.27 -0.67 -0.470208 0.522465 0.0097611 0.00971709 1.83403e-05 0.00974101 1.71338e-07 273.011 
-0.25 -0.67 -0.462808 0.494645 0.00977099 0.00972287 1.3467e-05 0.00975378 1.7143e-07 273.223 
-0.25 -0.81 -0.280137 0.296289 0.00975881 0.00971263 8.79306e-06 0.00974292 1.71397e-07 272.971 
-0.25 -0.79 -0.334989 0.167906 0.00976787 0.00972254 1.94318e-05 0.0097451 1.71438e-07 272.966 
-0.35 -0.55 -0.237911 0.760377 0.00978146 0.0097132 5.98479e-06 0.00974595 1.71452e-07 272.968 
-0.39 -0.53 -0.288062 0.893386 0.00977633 0.00969278 3.79937e-06 0.00973924 1.714e-07 272.864 
-0.37 -0.57 -0.241798 0.774601 0.00976812 0.00970428 1.2852e-05 0.00974267 1.71347e-07 273.044 
-0.41 -0.55 -0.228342 0.889973 0.00976139 0.00970118 8.04424e-06 0.00973882 1.7143e-07 272.803 
-0.45 -0.53 -0.0891443 0.60489 0.00976204 0.00969468 1.52198e-07 0.00972761 1.71267e-07 272.749 
-0.35 -0.57 -0.242814 0.726249 0.00977727 0.00970407 2.06034e-05 0.00974351 1.71455e-07 272.896 
-0.39 -0.55 -0.330371 0.728605 0.00976252 0.00968779 5.10154e-06 0.00973542 1.71304e-07 272.91 
-0.43 -0.53 -0.207617 0.801075 0.00976707 0.00969228 5.89155e-06 0.00973196 1.71425e-07 272.62 
-0.47 -0.51 -0.0575042 0.781465 0.00976857 0.00970124 -6.50295e-07 0.00973578 1.71486e-07 272.629 
-0.37 -0.55 -0.295026 0.760717 0.0097664 0.00969345 7.64302e-06 0.0097373 1.7125e-07 273.048 
-0.41 -0.53 -0.238221 0.761785 0.00977292 0.00970356 5.43182e-06 0.00973828 1.71468e-07 272.728 
-0.45 -0.51 -0.29767 0.721247 0.00976774 0.009691 4.09971e-06 0.00973346 1.714e-07 272.701 
-0.37 -0.53 -0.29443 0.704816 0.00977938 0.00969513 -1.16593e-06 0.00974107 1.71448e-07 272.838 
-0.41 -0.51 -0.313603 0.800258 0.0097665 0.00970266 -6.28134e-07 0.00973758 1.71438e-07 272.756 
-0.35 -0.53 -0.366151 0.765951 0.00977368 0.0097063 7.57067e-06 0.0097409 1.715e-07 272.75 
-0.39 -0.51 -0.335463 0.852499 0.0097714 0.0096927 1.03474e-06 0.00973461 1.71447e-07 272.658 
-0.37 -0.51 -0.392948 0.808936 0.00976811 0.00969146 5.23879e-06 0.00973237 1.71298e-07 272.833 
-0.35 -0.51 -0.428379 0.812057 0.00976652 0.00970092 1.08127e-05 0.00972884 1.71333e-07 272.678 
-0.49 -0.65 -0.0410273 0.483975 0.00977095 0.00972233 7.21419e-06 0.00974807 1.71476e-07 272.989 
-0.47 -0.65 -0.113058 0.441469 0.00976829 0.00971537 1.5026e-06 0.009746 1.71486e-07 272.916 
-0.45 -0.65 -0.0460587 0.62756 0.00976272 0.00972075 7.43138e-06 0.00974681 1.71651e-07 272.676 
-0.49 -0.63 0.00043944 0.482766 0.00976817 0.00972696 2.85587e-06 0.00975492 1.71774e-07 272.707 
-0.43 -0.65 0.0168748 0.619989 0.00975696 0.00969774 6.29518e-06 0.00973411 1.71436e-07 272.662 
-0.47 -0.63 -0.00242141 0.52499 0.00976331 0.00970641 2.88961e-06 0.00974025 1.71549e-07 272.655 
-0.41 -0.65 0.0149129 0.554335 0.00976278 0.00970574 1.30113e-05 0.0097391 1.71419e-07 272.829 
-0.45 -0.63 -0.0422584 0.553528 0.00977225 0.00972212 7.99957e-06 0.00975207 1.71654e-07 272.818 
-0.49 -0.61 -0.0298222 0.56425 0.00976172 0.00971368 -3.92018e-06 0.00974431 1.71473e-07 272.889 
-0.39 -0.65 -0.0671324 0.457549 0.00976067 0.00971584 8.26634e-06 0.00974204 1.7132e-07 273.069 
-0.43 -0.63 -0.0862247 0.619579 0.00977546 0.00970451 9.20784e-06 0.00974099 1.71336e-07 273.014 
-0.47 -0.61 -0.121346 0.487628 0.00976726 0.00971433 6.99549e-06 0.00974544 1.71493e-07 272.889 
-0.37 -0.65 -0.172208 0.461066 0.00976123 0.00969803 2.1722e-06 0.0097299 1.71136e-07 273.021 
-0.41 -0.63 -0.118768 0.635915 0.00977082 0.00969587 2.67586e-06 0.00973633 1.71366e-07 272.835 
-0.45 -0.61 -0.0932216 0.631961 0.00976418 0.00971031 -3.74825e-06 0.00974059 1.71362e-07 272.962 
-0.49 -0.59 -0.012284 0.533605 0.00977352 0.00970521 -5.3946e-06 0.0097478 1.7166e-07 272.689 
-0.35 -0.65 -0.241713 0.479702 0.0097708 0.00971378 1.22795e-05 0.00974083 1.71444e-07 272.837 
-0.39 -0.63 -0.0883098 0.522162 0.00978048 0.00971984 1.30793e-05 0.00975108 1.71511e-07 273.018 
-0.43 -0.61 -0.00961596 0.644646 0.00977507 0.00970682 5.63447e-06 0.00974168 1.71363e-07 272.99 
-0.47 -0.59 0.113142 0.555174 0.0097825 0.00971657 -5.22613e-06 0.00975297 1.71562e-07 272.99 
-0.37 -0.63 -0.204611 0.467588 0.00976514 0.00969891 1.32884e-05 0.00973162 1.71202e-07 272.964 
-0.41 -0.61 -0.0987536 0.579497 0.00977393 0.00970214 9.92444e-06 0.00973793 1.71321e-07 272.951 
-0.45 -0.59 0.0520537 0.47792 0.00978257 0.00971239 3.13432e-06 0.00975345 1.71575e-07 272.982 
-0.49 -0.57 -0.0546222 0.484476 0.00978005 0.0097084 -6.17122e-06 0.00974636 1.71513e-07 272.883 
-0.35 -0.63 -0.314552 0.578691 0.00975999 0.00970195 1.21282e-05 0.00973108 1.71283e-07 272.821 
-0.39 -0.61 -0.0423213 0.476191 0.00977319 0.00970596 1.08084e-05 0.00973834 1.7131e-07 272.981 
-0.43 -0.59 -0.0259813 0.777174 0.0097729 0.00969632 5.85744e-06 0.00974395 1.71541e-07 272.771 
-0.47 -0.57 -0.0915369 0.487304 0.00976826 0.00970842 -4.94089e-06 0.00973773 1.71384e-07 272.847 
-0.37 -0.61 -0.106882 0.681264 0.00977582 0.00970633 1.38694e-05 0.00974079 1.71501e-07 272.745 
-0.41 -0.59 -0.0052876 0.548356 0.00978051 0.00970464 4.29219e-06 0.00974156 1.71417e-07 272.901 
-0.45 -0.57 -0.0619598 0.682802 0.00976909 0.00970301 3.2896e-06 0.00973843 1.7136e-07 272.904 
-0.49 -0.55 -0.0370306 0.619009 0.00975744 0.00970485 -5.16303e-06 0.00973472 1.7135e-07 272.816 
-0.35 -0.61 -0.113521 0.588202 0.0097723 0.00970042 1.14546e-05 0.00973406 1.71337e-07 272.818 
-0.39 -0.59 -0.0324045 0.554114 0.00977578 0.00969086 9.12845e-06 0.00973796 1.71367e-07 272.88 
-0.43 -0.57 0.0518745 0.657904 0.00977249 0.00969784 5.53995e-06 0.00973995 1.71368e-07 272.934 
-0.47 -0.55 -0.153392 0.646478 0.00976668 0.00969926 1.08685e-06 0.00974011 1.71514e-07 272.706 
-0.33 -0.61 -0.357179 0.594916 0.00976826 0.00969883 1.99233e-05 0.00973657 1.71281e-07 272.978 
-0.37 -0.59 -0.118281 0.678465 0.00978189 0.00971799 2.06313e-05 0.00975268 1.71608e-07 272.908 
-0.41 -0.57 -0.0528049 0.664562 0.00976441 0.00970226 1.28594e-05 0.00973766 1.71252e-07 273.055 
-0.45 -0.55 -0.182288 0.507123 0.00976306 0.00969898 3.55529e-06 0.00972907 1.71215e-07 272.873 
-0.49 -0.53 0.0357384 0.670958 0.00976338 0.00969613 -2.19394e-06 0.0097365 1.71357e-07 272.855 
-0.35 -0.59 -0.280408 0.710023 0.00977057 0.00969347 1.65063e-05 0.00973033 1.71345e-07 272.701 
-0.39 -0.57 -0.243266 0.719238 0.00976585 0.00968437 7.97762e-06 0.0097322 1.71193e-07 272.995 
-0.43 -0.55 -0.192673 0.597835 0.00976127 0.00969364 1.02816e-05 0.00973046 1.71326e-07 272.734 
-0.47 -0.53 -0.00711138 0.608867 0.00975702 0.00970003 1.05738e-06 0.00972817 1.7124e-07 272.807 
-0.29 -0.57 -0.585104 0.671133 0.00977324 0.00971331 1.87625e-05 0.00974787 1.71462e-07 273.006 
-0.33 -0.55 -0.418821 0.853455 0.00978412 0.00970816 1.02345e-05 0.00974917 1.71518e-07 272.954 
-0.29 -0.61 -0.351496 0.527009 0.00977048 0.00971971 9.42558e-06 0.00974741 1.71665e-07 272.669 
-0.33 -0.59 -0.276567 0.83951 0.00976903 0.00970372 1.50055e-05 0.00973953 1.71319e-07 273 
-0.27 -0.61 -0.353452 0.51306 0.00977887 0.00971026 1.58376e-05 0.0097477 1.71626e-07 272.741 
-0.31 -0.59 -0.415596 0.655693 0.00977122 0.00971111 1.13984e-05 0.00974067 1.71463e-07 272.803 
-0.29 -0.59 -0.350221 0.399256 0.00977626 0.00972114 1.21808e-05 0.00974733 1.7161e-07 272.755 
-0.33 -0.57 -0.307828 0.778296 0.0097807 0.00971182 7.63437e-06 0.00974794 1.71464e-07 273.005 
-0.27 -0.59 -0.469728 0.646138 0.00976797 0.00970127 1.34566e-05 0.00973841 1.71475e-07 272.72 
-0.31 -0.57 -0.328082 0.686505 0.00977985 0.00970794 7.22809e-06 0.0097465 1.71561e-07 272.811 
-0.27 -0.57 -0.659335 0.665106 0.00976621 0.00970298 2.63656e-05 0.00974763 1.7159e-07 272.796 
-0.31 -0.55 -0.38466 0.932965 0.00977409 0.00970936 1.89883e-05 0.00974518 1.71474e-07 272.911 
-0.29 -0.55 -0.504082 0.669706 0.00976231 0.00969524 2.35258e-05 0.00973228 1.71265e-07 272.883 
-0.33 -0.53 -0.318229 1.05058 0.00977158 0.00969627 1.37572e-05 0.00973552 1.71282e-07 272.947 
-0.27 -0.55 -0.435705 0.595588 0.00976651 0.00970991 1.96412e-05 0.00973997 1.71391e-07 272.898 
-0.31 -0.53 -0.366921 0.753928 0.00977185 0.00970386 2.40313e-05 0.00974236 1.71485e-07 272.814 
-0.29 -0.53 -0.269563 0.695815 0.00978364 0.00970043 1.99036e-05 0.00974827 1.71493e-07 272.968 
-0.33 -0.51 -0.285143 0.877537 0.00976215 0.00969038 1.52768e-05 0.00973039 1.71146e-07 273.02 
-0.27 -0.53 -0.46567 0.802655 0.00977929 0.00971078 2.35678e-05 0.00974465 1.71452e-07 272.932 
-0.31 -0.51 -0.309449 0.859835 0.00976403 0.00969946 1.68279e-05 0.00972932 1.71295e-07 272.753 
-0.29 -0.51 -0.520399 0.828354 0.0097594 0.0096993 2.35068e-05 0.00973767 1.71445e-07 272.747 
-0.27 -0.51 -0.587357 1.01638 0.00975676 0.00970305 2.87465e-05 0.00973596 1.71292e-07 272.943 
-0.33 -0.65 -0.315815 0.447733 0.0097721 0.0097063 1.88407e-05 0.00973843 1.71299e-07 273.001 
-0.31 -0.65 -0.264985 0.557427 0.00976667 0.00971099 1.40863e-05 0.00974053 1.71319e-07 273.029 
-0.29 -0.65 -0.452273 0.513946 0.00975865 0.00970387 1.33512e-05 0.00972999 1.71119e-07 273.051 
-0.33 -0.63 -0.247633 0.500691 0.00976219 0.00970934 9.11711e-06 0.00974048 1.71425e-07 272.858 
-0.27 -0.65 -0.460151 0.479424 0.00977045 0.00972313 1.17411e-05 0.00974657 1.71477e-07 272.946 
-0.31 -0.63 -0.4073 0.63761 0.00976355 0.00970504 1.79748e-05 0.00973743 1.7129e-07 272.988 
-0.25 -0.65 -0.537308 0.43936 0.00976578 0.00972071 1.31464e-05 0.00974329 1.71444e-07 272.907 
-0.29 -0.63 -0.421252 0.440122 0.00977139 0.00971767 1.28178e-05 0.00974413 1.71494e-07 272.85 
-0.27 -0.63 -0.408323 0.528109 0.00975974 0.00971496 1.24764e-05 0.00973767 1.71453e-07 272.734 
-0.31 -0.61 -0.4233 0.57929 0.0097727 0.00971177 1.24663e-05 0.00974694 1.71605e-07 272.752 
-0.49 -0.67 0.0510587 0.46809 0.00976888 0.00972005 -7.23146e-06 0.00974321 1.71509e-07 272.8 
-0.47 -0.67 0.0517011 0.432162 0.00976542 0.00972047 1.53954e-06 0.00974307 1.71525e-07 272.771 
-0.45 -0.67 0.0917417 0.568237 0.00976492 0.00972002 3.6061e-06 0.00974859 1.71579e-07 272.84 
-0.43 -0.67 -0.0712321 0.63944 0.00977065 0.00970913 9.22973e-06 0.00974406 1.7157e-07 272.727 