ITEM: TIMESTEP
1072000
ITEM: NUMBER OF CELLS
5000
ITEM: BOX BOUNDS ss ss pp
-0.5 0.5
-1 1
-0.5 0.5
ITEM: CELLS xc yc f_U[*] f_V[*] f_Tau[1] f_Tau[2] f_Tau[3] f_Press[*] f_Mrho[*] f_Ttra[*] 
-0.49 -0.99 -0.0474469 0.0986107 0.00976485 0.0097374 7.56464e-06 0.00975122 1.71514e-07 273.017 
-0.47 -0.99 -0.153693 0.0305022 0.00975022 0.00972036 6.638e-06 0.00973942 1.71431e-07 272.818 
-0.45 -0.99 -0.2622 -0.00425516 0.00975339 0.00972905 4.41741e-06 0.00974507 1.71441e-07 272.961 
-0.49 -0.97 -0.0488947 0.169073 0.00974599 0.00972511 9.35944e-06 0.00973506 1.7131e-07 272.888 
-0.43 -0.99 -0.262075 -0.0611678 0.00974709 0.00972068 4.33424e-06 0.00973873 1.71305e-07 273 
-0.47 -0.97 -0.0974018 0.0868341 0.00974903 0.00972329 1.31722e-05 0.0097393 1.71363e-07 272.924 
-0.41 -0.99 -0.0597503 -0.0819768 0.00974174 0.00972518 2.64903e-06 0.00973909 1.71301e-07 273.016 
-0.45 -0.97 -0.0438405 0.0318458 0.00974503 0.00973279 5.18531e-06 0.00974412 1.71435e-07 272.944 
-0.49 -0.95 0.0769525 0.132225 0.0097366 0.00971575 2.2929e-06 0.00973233 1.71248e-07 272.911 
-0.39 -0.99 -0.117485 0.100833 0.00974485 0.00972738 3.16361e-06 0.00973779 1.71173e-07 273.184 
-0.43 -0.97 -0.0056574 0.0189943 0.00974643 0.00971996 3.94736e-06 0.00973827 1.71303e-07 272.991 
-0.47 -0.95 0.114296 0.080617 0.00975005 0.00972627 1.58697e-06 0.00973994 1.71373e-07 272.925 
-0.37 -0.99 -0.157121 -0.0229853 0.00974239 0.00972925 8.73773e-06 0.00973856 1.71295e-07 273.011 
-0.41 -0.97 -0.194256 -0.20245 0.00974476 0.00972625 5.4186e-06 0.00973867 1.71374e-07 272.889 
-0.45 -0.95 0.178326 -0.0523137 0.00975701 0.00973659 6.75509e-06 0.00975458 1.71605e-07 272.967 
-0.49 -0.93 -0.0135201 0.0718888 0.00976539 0.00972217 7.77358e-07 0.00974884 1.7152e-07 272.94 
-0.35 -0.99 -0.124554 -0.0622158 0.00973537 0.0097132 3.6114e-06 0.00972187 1.71125e-07 272.814 
-0.39 -0.97 -0.026332 0.0482719 0.00974234 0.00972592 6.79092e-06 0.00974028 1.71417e-07 272.866 
-0.43 -0.95 0.141309 0.0293779 0.00975669 0.00971692 6.90404e-06 0.00974359 1.71443e-07 272.917 
-0.47 -0.93 0.0251635 0.0381043 0.00975591 0.00972127 1.34123e-06 0.00974381 1.71507e-07 272.821 
-0.33 -0.99 -0.082227 0.0236993 0.00973372 0.00973177 7.10736e-06 0.00973122 1.71269e-07 272.847 
-0.37 -0.97 0.00420991 -0.0284357 0.00973966 0.00972828 4.89844e-06 0.00974111 1.71343e-07 273.007 
-0.41 -0.95 0.0427164 0.0168114 0.00975642 0.0097288 3.70117e-06 0.00974362 1.71524e-07 272.788 
-0.45 -0.93 -0.0412479 0.0384973 0.00975484 0.00973146 7.08421e-06 0.00974595 1.71544e-07 272.822 
-0.49 -0.91 -0.00816763 0.178109 0.00977048 0.00972489 1.15809e-05 0.00975092 1.71449e-07 273.112 
-0.35 -0.97 -0.0223882 -0.0284687 0.00973978 0.00971632 1.0545e-05 0.00973199 1.71203e-07 272.973 
-0.39 -0.95 -0.170557 -0.0149922 0.00975339 0.00972501 7.68357e-06 0.00973831 1.71423e-07 272.801 
-0.43 -0.93 -0.0616102 0.0978084 0.0097523 0.00972265 2.28817e-06 0.00973581 1.71378e-07 272.802 
-0.47 -0.91 -0.214416 0.0465568 0.00976516 0.00972336 6.80801e-06 0.00974483 1.71523e-07 272.824 
-0.33 -0.97 -0.101575 0.0133744 0.0097436 0.00972699 6.68887e-06 0.00974081 1.71469e-07 272.796 
-0.37 -0.95 -0.14564 -0.0425457 0.00975397 0.00972351 1.16611e-05 0.00974178 1.7131e-07 273.077 
-0.41 -0.93 -0.0933297 0.0416235 0.00975134 0.00972287 9.09538e-06 0.00973171 1.71284e-07 272.837 
-0.45 -0.91 -0.0958279 0.0388848 0.00976464 0.0097246 5.67772e-06 0.00974988 1.71533e-07 272.95 
-0.49 -0.89 -0.012926 0.142797 0.00976963 0.00972476 1.0196e-05 0.00974849 1.71439e-07 273.06 
-0.35 -0.95 -0.0785428 -0.017457 0.00975298 0.00972001 3.53512e-06 0.00973904 1.71359e-07 272.922 
-0.39 -0.93 -0.000522685 -0.0313947 0.00974992 0.00972345 8.08779e-06 0.00974024 1.71568e-07 272.624 
-0.43 -0.91 -0.178656 0.0749707 0.00976181 0.0097307 8.77585e-06 0.00974308 1.71331e-07 273.081 
-0.47 -0.89 0.124279 0.141028 0.00976932 0.00973044 8.19012e-06 0.00974854 1.71589e-07 272.823 
-0.37 -0.93 -0.0215607 0.00871065 0.00975553 0.00972597 3.20963e-06 0.0097462 1.71459e-07 272.964 
-0.41 -0.91 -0.0669247 0.00249413 0.00976557 0.00971359 2.68616e-06 0.00973777 1.71301e-07 272.98 
-0.45 -0.89 -0.0292561 0.175333 0.00976221 0.00971849 4.88635e-06 0.00974356 1.7142e-07 272.952 
-0.49 -0.87 -0.0216878 0.183892 0.00975169 0.00971448 -1.88122e-07 0.00973205 1.71243e-07 272.911 
-0.35 -0.93 -0.259969 0.00609006 0.00975782 0.00972144 8.29662e-06 0.00973976 1.7144e-07 272.814 
-0.39 -0.91 -0.0803031 -0.0592354 0.00977049 0.00972854 1.1155e-05 0.0097531 1.71666e-07 272.828 
-0.43 -0.89 -0.0993328 0.00197185 0.00976759 0.00973658 6.42136e-06 0.00975134 1.71458e-07 273.11 
-0.47 -0.87 0.0758896 0.127227 0.0097605 0.00973134 9.57163e-06 0.00974289 1.71369e-07 273.015 
-0.37 -0.91 -0.219463 0.193475 0.00975645 0.00972403 9.05421e-06 0.00974101 1.71597e-07 272.598 
-0.41 -0.89 -0.0898377 -0.0279891 0.00976152 0.00971179 4.62104e-06 0.00974143 1.71519e-07 272.735 
-0.45 -0.87 -0.0895495 0.186975 0.0097657 0.00971906 9.21963e-06 0.00974827 1.71453e-07 273.031 
-0.49 -0.85 -0.0586334 0.17011 0.00975428 0.00971411 -1.07855e-06 0.00973182 1.71192e-07 272.987 
-0.35 -0.91 -0.119803 0.107708 0.00974996 0.00972327 3.46974e-06 0.00973662 1.71422e-07 272.755 
-0.39 -0.89 -0.0428856 0.119793 0.00975448 0.00971777 9.66362e-06 0.00974309 1.71466e-07 272.866 
-0.43 -0.87 -0.0945851 0.117829 0.00975436 0.00973627 1.00617e-05 0.00974781 1.71524e-07 272.905 
-0.47 -0.85 -0.157922 0.229102 0.0097548 0.00972115 1.59652e-06 0.00974295 1.71339e-07 273.065 
-0.33 -0.91 -0.190443 -0.0225447 0.00975627 0.0097203 1.07531e-05 0.00974096 1.71405e-07 272.903 
-0.37 -0.89 -0.150713 0.10281 0.00976475 0.00973513 1.46248e-05 0.00975749 1.71682e-07 272.925 
-0.41 -0.87 -0.194424 -0.0520815 0.00975875 0.00971353 7.48e-06 0.00974091 1.71542e-07 272.685 
-0.45 -0.85 -0.125596 0.192653 0.0097602 0.00971761 6.72735e-06 0.00974298 1.71339e-07 273.065 
-0.35 -0.89 -0.230723 0.140806 0.00976766 0.00972118 8.61882e-06 0.00974147 1.71467e-07 272.819 
-0.39 -0.87 -0.293847 0.155116 0.00976816 0.00971698 4.71428e-06 0.0097467 1.71606e-07 272.744 
-0.43 -0.85 -0.200388 0.15447 0.00977254 0.0097389 6.5925e-06 0.00975071 1.71635e-07 272.811 
-0.37 -0.87 -0.347466 0.21684 0.00977038 0.00973079 6.74412e-06 0.00975492 1.71664e-07 272.883 
-0.41 -0.85 -0.176842 0.0770711 0.00976963 0.00971627 8.72718e-06 0.00974517 1.71588e-07 272.729 
-0.35 -0.87 -0.290549 0.100366 0.0097681 0.00972301 9.66986e-06 0.00974428 1.71444e-07 272.933 
-0.39 -0.85 -0.267243 0.310393 0.00976516 0.00971833 3.26934e-06 0.00974746 1.7161e-07 272.758 
-0.33 -0.87 -0.33574 0.123259 0.00976399 0.00972288 1.1907e-05 0.00974602 1.71532e-07 272.843 
-0.37 -0.85 -0.277469 0.0220382 0.00976606 0.0097242 8.52466e-06 0.00974683 1.71495e-07 272.924 
-0.35 -0.85 -0.259734 0.162727 0.00976584 0.00972033 1.12105e-05 0.0097439 1.71395e-07 273.002 
-0.33 -0.85 -0.385221 0.363141 0.00976653 0.00972535 1.214e-05 0.00974404 1.71446e-07 272.924 
-0.31 -0.99 -0.0196416 -0.0485525 0.00972936 0.00971665 1.43973e-05 0.00972146 1.71196e-07 272.69 
-0.29 -0.99 -0.0824135 0.0388837 0.00972982 0.00971616 8.58973e-06 0.00972846 1.71173e-07 272.923 
-0.27 -0.99 -0.136977 0.0208 0.00974432 0.00972759 7.3287e-06 0.00973662 1.71194e-07 273.118 
-0.31 -0.97 -0.360492 -0.0167251 0.00975039 0.00972319 6.17367e-06 0.00973828 1.7139e-07 272.852 
-0.29 -0.97 -0.440423 0.208768 0.00975685 0.00972028 7.41137e-06 0.00974798 1.71495e-07 272.956 
-0.33 -0.95 -0.0853592 0.142122 0.00975176 0.00972639 9.55894e-06 0.00974033 1.71365e-07 272.949 
-0.27 -0.97 -0.317942 -0.113899 0.00974304 0.00971996 1.00617e-05 0.00973641 1.71322e-07 272.907 
-0.31 -0.95 -0.130308 0.187584 0.0097488 0.0097237 8.20048e-06 0.00973345 1.71315e-07 272.835 
-0.29 -0.95 -0.0878999 0.117688 0.00974056 0.00971032 1.01082e-05 0.00972515 1.71208e-07 272.773 
-0.33 -0.93 -0.263355 0.157612 0.0097587 0.00972155 3.15895e-06 0.00973741 1.71348e-07 272.895 
-0.27 -0.95 -0.291013 -0.0959011 0.00974882 0.00972737 6.41854e-06 0.00973806 1.71338e-07 272.929 
-0.31 -0.93 -0.0952483 0.0509805 0.0097595 0.00972004 9.80556e-06 0.00973941 1.71506e-07 272.699 
-0.29 -0.93 -0.169162 0.219391 0.00976451 0.00971581 1.0193e-05 0.00974249 1.71484e-07 272.821 
-0.27 -0.93 -0.163534 0.127255 0.00976245 0.0097236 6.84957e-06 0.00974534 1.71527e-07 272.832 
-0.31 -0.91 -0.220241 0.130795 0.00975681 0.0097188 9.2098e-06 0.00973916 1.7142e-07 272.828 
-0.29 -0.91 -0.249097 0.177446 0.00975585 0.00971695 2.17861e-06 0.00973374 1.71386e-07 272.731 
-0.33 -0.89 -0.247665 0.0350995 0.00975908 0.00972142 4.86279e-06 0.009742 1.71399e-07 272.942 
-0.27 -0.91 -0.150641 0.138978 0.00975889 0.00972216 6.28881e-06 0.00973973 1.71512e-07 272.699 
-0.31 -0.89 -0.206873 0.163944 0.00976175 0.00972128 3.88609e-06 0.00974517 1.71486e-07 272.892 
-0.29 -0.89 -0.207094 0.0669809 0.00975829 0.00971515 8.85041e-06 0.0097403 1.71324e-07 273.014 
-0.27 -0.89 -0.295279 0.262933 0.00975226 0.00971964 9.95082e-06 0.00974292 1.71463e-07 272.866 
-0.31 -0.87 -0.478714 0.194963 0.00975884 0.00972023 7.79108e-06 0.00973961 1.71443e-07 272.805 
-0.29 -0.87 -0.439955 0.118695 0.0097557 0.00971047 9.79202e-06 0.00973841 1.71336e-07 272.942 
-0.27 -0.87 -0.428873 0.260854 0.00975604 0.00972054 1.36369e-05 0.00974229 1.71398e-07 272.952 
-0.31 -0.85 -0.394727 0.0484218 0.0097636 0.0097208 1.5099e-05 0.00974605 1.71462e-07 272.955 
-0.29 -0.85 -0.283544 0.177886 0.00975602 0.00970991 1.32903e-05 0.00974043 1.71404e-07 272.889 
-0.27 -0.85 -0.365396 0.19561 0.00975526 0.00972053 1.15438e-05 0.00974143 1.71217e-07 273.217 
-0.25 -0.99 -0.23339 0.0756868 0.00975085 0.00973821 1.21543e-05 0.00974741 1.71402e-07 273.088 
-0.25 -0.97 -0.184839 0.056142 0.00974246 0.00973076 8.34029e-06 0.00973987 1.71418e-07 272.851 
-0.25 -0.95 -0.381348 0.0675957 0.00975023 0.00973259 8.20722e-06 0.00974281 1.71401e-07 272.961 
-0.25 -0.93 -0.201333 0.0573386 0.00975937 0.00973358 1.05364e-05 0.00974484 1.71556e-07 272.771 
-0.25 -0.91 -0.277899 0.0902646 0.009759 0.00973213 8.90398e-06 0.00974814 1.71661e-07 272.697 
-0.25 -0.89 -0.334715 0.233544 0.00974946 0.0097253 1.37571e-05 0.00973866 1.71415e-07 272.822 
-0.25 -0.87 -0.433618 0.262885 0.00975241 0.00972105 1.59131e-05 0.00973975 1.71363e-07 272.936 
-0.25 -0.85 -0.285341 0.29452 0.00976204 0.00972109 1.15085e-05 0.0097467 1.71425e-07 273.032 
-0.25 -0.83 -0.379412 0.201806 0.00976388 0.00971753 8.43338e-06 0.00974563 1.7142e-07 273.01 
-0.33 -0.81 -0.151788 0.229112 0.00976138 0.00971185 1.07233e-05 0.00973936 1.71412e-07 272.848 
-0.31 -0.81 -0.236932 0.228401 0.00977729 0.00972185 1.26453e-05 0.00975212 1.71493e-07 273.077 
-0.29 -0.81 -0.22093 0.16885 0.00977936 0.00972379 8.81788e-06 0.00975408 1.71545e-07 273.048 
-0.27 -0.81 -0.314427 0.270975 0.00977582 0.00972175 1.34771e-05 0.00975548 1.716e-07 273 
-0.31 -0.79 -0.23884 0.16763 0.00975882 0.00971801 5.1695e-06 0.00973807 1.71434e-07 272.775 
-0.29 -0.79 -0.285094 0.381022 0.0097595 0.00972094 1.25095e-05 0.00974004 1.71486e-07 272.748 
-0.33 -0.77 -0.294514 0.344378 0.00976873 0.00972365 1.62168e-05 0.00974558 1.71522e-07 272.847 
-0.27 -0.79 -0.387335 0.252309 0.00976256 0.00971578 1.0551e-05 0.00974164 1.71463e-07 272.829 
-0.31 -0.77 -0.284151 0.165429 0.00976382 0.00971457 1.1811e-05 0.00974182 1.71482e-07 272.804 
-0.29 -0.77 -0.262437 0.372772 0.00975895 0.00971844 7.82573e-06 0.00974015 1.71504e-07 272.722 
-0.27 -0.77 -0.275066 0.227386 0.00975777 0.00971403 7.92535e-06 0.00973875 1.71389e-07 272.867 
-0.31 -0.75 -0.189973 0.360837 0.00976864 0.00971949 1.13893e-05 0.00974905 1.71607e-07 272.808 
-0.29 -0.75 -0.454332 0.313316 0.00976755 0.00972206 1.21396e-05 0.00974934 1.71589e-07 272.845 
-0.27 -0.75 -0.499038 0.503026 0.00976667 0.00970858 1.75336e-05 0.00973652 1.71355e-07 272.859 
-0.49 -0.83 0.0124779 0.271277 0.00975601 0.00971619 2.8404e-07 0.0097362 1.71334e-07 272.884 
-0.47 -0.83 -0.104307 0.209101 0.00975782 0.00971738 1.69158e-06 0.00973931 1.71526e-07 272.665 
-0.45 -0.83 -0.120177 0.261386 0.00975628 0.00972182 -7.62944e-07 0.00974088 1.71398e-07 272.912 
-0.49 -0.81 -0.0469943 0.310785 0.00976646 0.00972141 1.50692e-06 0.00974224 1.71487e-07 272.808 
-0.43 -0.83 -0.122287 0.250455 0.00975493 0.00972263 5.02487e-06 0.00973967 1.71396e-07 272.881 
-0.47 -0.81 -0.12349 0.263499 0.00976224 0.00971598 4.68605e-07 0.00974284 1.71513e-07 272.785 
-0.45 -0.81 -0.0621113 0.238063 0.0097662 0.00972439 2.22648e-06 0.00974487 1.71488e-07 272.881 
-0.49 -0.79 -0.0244268 0.503144 0.00976036 0.00972141 3.62619e-06 0.00973946 1.71383e-07 272.896 
-0.43 -0.81 -0.0550697 0.251888 0.00976119 0.00971284 4.90223e-06 0.00973889 1.71552e-07 272.611 
-0.47 -0.79 -0.0217135 0.152591 0.00976027 0.0097194 -4.09503e-06 0.00974195 1.71449e-07 272.861 
-0.41 -0.81 -0.187024 0.168052 0.00976443 0.00972747 8.89647e-06 0.00975099 1.71592e-07 272.886 
-0.45 -0.79 -0.0662711 0.25339 0.00975913 0.00971743 3.01978e-06 0.00973601 1.7145e-07 272.694 
-0.49 -0.77 0.0638676 0.390588 0.00975972 0.00972331 5.83644e-06 0.00974277 1.71406e-07 272.952 
-0.39 -0.81 -0.240384 0.21646 0.00976034 0.00971918 1.28435e-05 0.00974485 1.7157e-07 272.75 
-0.43 -0.79 -0.253254 0.340613 0.00976778 0.00971197 5.109e-06 0.00973931 1.7155e-07 272.626 
-0.47 -0.77 0.0418516 0.302487 0.00975985 0.00972522 2.79555e-06 0.00974459 1.71478e-07 272.889 
-0.37 -0.81 -0.0579107 0.157818 0.00975843 0.00972078 9.59598e-06 0.0097395 1.71554e-07 272.625 
-0.41 -0.79 -0.259175 0.271862 0.00976974 0.00972728 7.49427e-06 0.00975282 1.71709e-07 272.752 
-0.45 -0.77 -0.206775 0.410188 0.00976076 0.0097129 -3.37601e-06 0.00973651 1.71455e-07 272.699 
-0.35 -0.81 -0.0411377 0.212966 0.00975356 0.00971471 4.51903e-06 0.00973765 1.71435e-07 272.763 
-0.39 -0.79 -0.22263 0.124869 0.00976617 0.00971438 7.18256e-06 0.009741 1.71559e-07 272.659 
-0.43 -0.77 -0.194464 0.38966 0.00975876 0.0097107 1.47775e-06 0.0097345 1.71434e-07 272.676 
-0.37 -0.79 -0.275207 0.156656 0.00977393 0.00972222 1.08251e-05 0.00974579 1.71594e-07 272.738 
-0.41 -0.77 -0.184309 0.156308 0.00975986 0.00971589 8.25721e-06 0.00973748 1.71402e-07 272.811 
-0.35 -0.79 -0.227873 0.170219 0.00977303 0.00971716 1.23615e-05 0.00974608 1.71587e-07 272.757 
-0.39 -0.77 -0.112728 0.140809 0.00976059 0.00972291 1.16121e-05 0.00974671 1.71593e-07 272.765 
-0.43 -0.75 0.0345544 0.20175 0.00976887 0.00970923 -1.8808e-06 0.00974075 1.71467e-07 272.799 
-0.33 -0.79 -0.247874 0.307352 0.00976365 0.00971558 5.17775e-06 0.00973958 1.71409e-07 272.858 
-0.37 -0.77 -0.138351 0.237193 0.00976051 0.00971958 3.56118e-06 0.00974045 1.71492e-07 272.751 
-0.41 -0.75 -0.0402807 0.327689 0.00976964 0.00970697 6.60453e-06 0.0097437 1.71619e-07 272.639 
-0.35 -0.77 -0.326888 0.244939 0.00976809 0.00971445 7.49278e-06 0.00974169 1.71469e-07 272.821 
-0.39 -0.75 -0.188083 0.189907 0.00977353 0.00972607 8.37604e-06 0.00975143 1.7169e-07 272.744 
-0.49 -0.75 -0.00600069 0.283808 0.00976708 0.00972786 6.00631e-06 0.00975185 1.71524e-07 273.018 
-0.47 -0.75 -0.0128252 0.506489 0.0097654 0.00973033 4.50086e-06 0.00974504 1.71426e-07 272.984 
-0.45 -0.75 -0.0724858 0.502862 0.00976399 0.00971039 9.31945e-08 0.00973371 1.7145e-07 272.629 
-0.49 -0.73 -0.0994233 0.44192 0.00977287 0.00972036 6.05525e-06 0.00974868 1.71487e-07 272.989 
-0.47 -0.73 -0.213798 0.465197 0.00977633 0.00973882 3.72452e-06 0.00975567 1.71494e-07 273.174 
-0.45 -0.73 -0.11795 0.32399 0.00977622 0.00971678 -4.35877e-06 0.00974307 1.71427e-07 272.927 
-0.49 -0.71 -0.0212749 0.60212 0.00977355 0.00972004 -1.8531e-07 0.00974565 1.71511e-07 272.865 
-0.43 -0.73 -0.0956728 0.350746 0.00976479 0.00970192 3.28975e-06 0.00973631 1.71393e-07 272.792 
-0.47 -0.71 -0.0598213 0.487958 0.00977537 0.00973621 1.32725e-06 0.00975474 1.71468e-07 273.19 
-0.37 -0.75 -0.191261 0.173769 0.00976952 0.00972068 1.02424e-05 0.00974219 1.71564e-07 272.685 
-0.41 -0.73 -0.186972 0.342099 0.00976777 0.00970276 7.33307e-07 0.00973808 1.71577e-07 272.55 
-0.45 -0.71 -0.0185897 0.251887 0.00976638 0.0097148 8.6457e-06 0.00974107 1.71331e-07 273.024 
-0.49 -0.69 0.0449128 0.575041 0.00977028 0.00971714 -5.72643e-06 0.00974525 1.71448e-07 272.955 
-0.35 -0.75 -0.0559921 0.263545 0.00976224 0.00971099 8.62292e-06 0.00973613 1.71395e-07 272.785 
-0.39 -0.73 -0.206672 0.178167 0.00977309 0.00971777 1.06198e-05 0.00974399 1.7152e-07 272.805 
-0.43 -0.71 -0.170513 0.38553 0.0097669 0.00970741 2.4968e-06 0.00974036 1.71566e-07 272.63 
-0.47 -0.69 0.134504 0.436468 0.00977093 0.00972712 5.1809e-06 0.0097502 1.71441e-07 273.105 
-0.37 -0.73 -0.293707 0.243933 0.00977469 0.00972577 1.07912e-05 0.00974838 1.71615e-07 272.777 
-0.41 -0.71 -0.130579 0.441737 0.00976831 0.00969623 -8.3478e-07 0.00973723 1.71672e-07 272.375 
-0.45 -0.69 -0.0355662 0.399303 0.00977762 0.0097136 7.20836e-06 0.00974796 1.71516e-07 272.922 
-0.35 -0.73 -0.498026 0.359484 0.00977414 0.0097116 1.03943e-05 0.00974676 1.7161e-07 272.74 
-0.39 -0.71 -0.219909 0.223296 0.0097682 0.00971901 1.08344e-06 0.00974143 1.71547e-07 272.691 
-0.43 -0.69 -0.103535 0.442018 0.00977771 0.00971718 7.7716e-06 0.00975161 1.7175e-07 272.653 
-0.33 -0.73 -0.345577 0.240913 0.00977298 0.00970858 1.44326e-05 0.00974187 1.71588e-07 272.638 
-0.37 -0.71 -0.143572 0.218326 0.00977142 0.0097195 1.24537e-05 0.00974718 1.71593e-07 272.778 
-0.41 -0.69 -0.116157 0.354115 0.00977 0.00970054 6.63062e-07 0.00973685 1.71606e-07 272.468 
-0.35 -0.71 -0.253882 0.502126 0.00977057 0.0097067 9.37273e-06 0.00974533 1.7155e-07 272.795 
-0.39 -0.69 -0.132931 0.384431 0.00976558 0.00970729 4.5527e-06 0.00973737 1.71442e-07 272.744 
-0.37 -0.69 -0.336227 0.281329 0.00976509 0.00971552 9.49825e-06 0.00974285 1.71536e-07 272.748 
-0.35 -0.69 -0.289478 0.512135 0.00976491 0.00970486 1.19535e-05 0.00973546 1.71406e-07 272.748 
-0.35 -0.67 -0.283045 0.398651 0.00977087 0.00971435 1.17419e-05 0.00974312 1.71478e-07 272.848 
-0.33 -0.67 -0.401183 0.562859 0.00975716 0.00970456 9.03412e-06 0.00973876 1.71488e-07 272.709 
-0.33 -0.75 -0.100015 0.314626 0.00976182 0.00971473 1.04671e-05 0.00973738 1.71403e-07 272.806 
-0.31 -0.73 -0.421935 0.466112 0.00976888 0.00972334 1.09659e-05 0.00974991 1.71576e-07 272.882 
-0.29 -0.73 -0.376477 0.46333 0.00977189 0.00971442 1.30631e-05 0.00974937 1.7151e-07 272.972 
-0.33 -0.71 -0.469634 0.170031 0.00976937 0.00971252 1.37234e-05 0.00974341 1.7151e-07 272.805 
-0.27 -0.73 -0.486898 0.556697 0.00976545 0.00971505 1.78299e-05 0.0097444 1.71438e-07 272.947 
-0.31 -0.71 -0.332904 0.497595 0.0097682 0.00972341 1.51486e-05 0.00974804 1.71536e-07 272.893 
-0.29 -0.71 -0.42716 0.440459 0.00976115 0.00970841 1.71277e-05 0.00974062 1.71344e-07 272.99 
-0.33 -0.69 -0.276417 0.295189 0.00977499 0.00971347 6.80981e-06 0.00974769 1.71668e-07 272.674 
-0.27 -0.71 -0.351388 0.468335 0.00976528 0.00971281 1.27202e-05 0.00974061 1.71324e-07 273.022 
-0.31 -0.69 -0.507306 0.48379 0.00977797 0.0097179 1.62755e-05 0.00975018 1.716e-07 272.851 
-0.29 -0.69 -0.480947 0.57546 0.00977576 0.0097115 1.93257e-05 0.00974762 1.71504e-07 272.932 
-0.27 -0.69 -0.549089 0.378114 0.00977293 0.00971812 1.43371e-05 0.00974434 1.71382e-07 273.035 
-0.31 -0.67 -0.432716 0.54862 0.00975559 0.00971292 1.33064e-05 0.00973702 1.71435e-07 272.744 
-0.29 -0.67 -0.429779 0.471462 0.00976328 0.00971227 1.66253e-05 0.00974175 1.71308e-07 273.08 
-0.41 -0.83 -0.184487 0.0618778 0.00975685 0.00972363 1.03587e-05 0.00974118 1.7153e-07 272.71 
-0.39 -0.83 -0.156069 0.297888 0.00975594 0.00972139 4.53709e-06 0.00973688 1.71475e-07 272.678 
-0.37 -0.83 -0.215805 0.223274 0.00975204 0.00971964 4.25895e-06 0.00973654 1.71335e-07 272.89 
-0.35 -0.83 -0.330816 0.106222 0.00975827 0.00971577 1.48657e-05 0.0097377 1.71417e-07 272.793 
-0.33 -0.83 -0.175033 0.33399 0.00975903 0.0097254 1.26703e-05 0.00974063 1.71322e-07 273.026 
-0.31 -0.83 -0.115422 -0.0594659 0.00975322 0.00971215 1.78973e-05 0.00974021 1.71455e-07 272.802 
-0.29 -0.83 -0.257634 0.208068 0.00976011 0.00972034 1.57774e-05 0.00974591 1.71348e-07 273.133 
-0.27 -0.83 -0.258272 0.312266 0.00976202 0.00972104 7.84311e-06 0.0097471 1.7141e-07 273.067 
-0.27 -0.67 -0.434358 0.517923 0.00976305 0.00972006 1.81364e-05 0.00974271 1.71387e-07 272.981 
-0.25 -0.67 -0.498863 0.410097 0.00976857 0.00971655 1.18858e-05 0.00974874 1.71352e-07 273.206 
-0.25 -0.81 -0.288396 0.359258 0.00976329 0.00971627 7.62097e-06 0.00974435 1.71424e-07 272.968 
-0.25 -0.79 -0.268335 0.255274 0.00976926 0.0097226 2.03709e-05 0.0097451 1.71452e-07 272.945 
-0.35 -0.55 -0.243235 0.779172 0.00978312 0.00970809 6.39799e-06 0.00974539 1.71466e-07 272.93 
-0.39 -0.53 -0.280223 0.87043 0.00977723 0.00969236 5.72952e-06 0.00973752 1.71443e-07 272.746 
-0.37 -0.57 -0.288047 0.747014 0.009769 0.00970207 1.10543e-05 0.00974293 1.71308e-07 273.113 
-0.41 -0.55 -0.19552 0.925676 0.00976252 0.00969802 7.30255e-06 0.00973679 1.71395e-07 272.802 
-0.45 -0.53 -0.103074 0.581933 0.0097621 0.0096956 -4.09749e-06 0.00972894 1.7131e-07 272.717 
-0.35 -0.57 -0.240278 0.74812 0.00977661 0.00970101 1.75383e-05 0.00974376 1.71483e-07 272.858 
-0.39 -0.55 -0.290543 0.710586 0.00976578 0.00969064 4.43956e-06 0.00973753 1.71383e-07 272.843 
-0.43 -0.53 -0.212726 0.895878 0.00976909 0.00969232 2.83054e-06 0.00973344 1.71441e-07 272.635 
-0.47 -0.51 -0.0649809 0.796993 0.00977358 0.00970323 -2.68985e-06 0.00974241 1.71537e-07 272.734 
-0.37 -0.55 -0.256176 0.73897 0.00976848 0.00969394 9.44166e-06 0.0097384 1.71278e-07 273.034 
-0.41 -0.53 -0.272545 0.726857 0.00977511 0.00969918 5.06106e-06 0.0097375 1.71457e-07 272.724 
-0.45 -0.51 -0.28578 0.731484 0.00977019 0.00969287 9.80257e-07 0.00973597 1.71447e-07 272.697 
-0.37 -0.53 -0.287772 0.749441 0.00977959 0.00969624 -2.66215e-07 0.00974113 1.71516e-07 272.732 
-0.41 -0.51 -0.29309 0.814254 0.00976377 0.00969777 -5.30216e-07 0.00973381 1.71374e-07 272.753 
-0.35 -0.53 -0.370704 0.745891 0.00977566 0.00970347 8.71681e-06 0.00974234 1.71468e-07 272.842 
-0.39 -0.51 -0.379917 0.855825 0.00977176 0.00969337 -1.08812e-06 0.00973459 1.7142e-07 272.701 
-0.37 -0.51 -0.35921 0.72123 0.0097715 0.00969131 3.43946e-06 0.00973173 1.71313e-07 272.791 
-0.35 -0.51 -0.407589 0.831353 0.00977076 0.00969812 9.98957e-06 0.00972954 1.71355e-07 272.664 
-0.49 -0.65 -0.0595991 0.474957 0.00977398 0.00972152 5.89789e-06 0.00974918 1.71495e-07 272.989 
-0.47 -0.65 -0.0687051 0.391987 0.00977071 0.00971492 -9.07794e-07 0.00974778 1.71472e-07 272.987 
-0.45 -0.65 -0.0406378 0.60964 0.00976397 0.00971571 7.47951e-06 0.00974451 1.71563e-07 272.751 
-0.49 -0.63 0.0232507 0.446577 0.00976664 0.0097246 2.01525e-06 0.00974999 1.71694e-07 272.696 
-0.43 -0.65 0.00762262 0.597925 0.00975975 0.00970277 4.99409e-06 0.00973847 1.71455e-07 272.754 
-0.47 -0.63 0.0140635 0.486386 0.00976164 0.00970654 2.40957e-06 0.00973967 1.71508e-07 272.703 
-0.41 -0.65 -0.00987511 0.591595 0.00976438 0.00970682 8.79541e-06 0.0097392 1.71472e-07 272.748 
-0.45 -0.63 -0.0315973 0.593468 0.00977123 0.00971792 7.1276e-06 0.00974873 1.7161e-07 272.794 
-0.49 -0.61 -0.0237971 0.558157 0.00975712 0.00971254 -4.09297e-06 0.00974125 1.71394e-07 272.928 
-0.39 -0.65 -0.112208 0.452759 0.00976033 0.00971438 8.70331e-06 0.0097384 1.71307e-07 272.987 
-0.43 -0.63 -0.0757001 0.606437 0.00977526 0.00970787 7.2734e-06 0.00974277 1.71328e-07 273.076 
-0.47 -0.61 -0.130183 0.432774 0.00976334 0.00971063 6.46137e-06 0.009742 1.71422e-07 272.905 
-0.37 -0.65 -0.221775 0.450532 0.00975855 0.00970001 4.52113e-06 0.0097271 1.71117e-07 272.973 
-0.41 -0.63 -0.111978 0.636615 0.00976899 0.00969618 2.97544e-06 0.00973661 1.71374e-07 272.831 
-0.45 -0.61 -0.094391 0.621947 0.00976269 0.00971017 -4.27356e-06 0.0097386 1.71383e-07 272.871 
-0.49 -0.59 0.0183759 0.498652 0.00977205 0.00970698 -5.85838e-06 0.00974811 1.71617e-07 272.765 
-0.35 -0.65 -0.311929 0.456976 0.009767 0.00971213 1.1697e-05 0.00973819 1.71397e-07 272.838 
-0.39 -0.63 -0.105149 0.526641 0.00977753 0.00971845 1.24748e-05 0.0097487 1.71541e-07 272.903 
-0.43 -0.61 -0.00945388 0.662436 0.00976936 0.0097095 4.04475e-06 0.00974081 1.71371e-07 272.953 
-0.47 -0.59 0.0982515 0.534911 0.00977946 0.00971061 -5.81945e-06 0.00974707 1.71498e-07 272.926 
-0.37 -0.63 -0.216578 0.477203 0.00976756 0.00970075 1.09073e-05 0.0097341 1.71273e-07 272.921 
-0.41 -0.61 -0.128773 0.633785 0.00977212 0.00969975 9.68454e-06 0.0097367 1.71301e-07 272.949 
-0.45 -0.59 0.0450298 0.502451 0.00977917 0.00971103 2.21889e-06 0.00975006 1.71484e-07 273.032 
-0.49 -0.57 -0.0728628 0.473721 0.00977949 0.00971156 -4.11208e-06 0.00974884 1.71521e-07 272.939 
-0.35 -0.63 -0.347134 0.579447 0.00976011 0.00970003 1.2982e-05 0.00973096 1.71261e-07 272.852 
-0.39 -0.61 -0.139824 0.490593 0.00976949 0.0097064 7.30978e-06 0.00973923 1.71358e-07 272.929 
-0.43 -0.59 -0.0726343 0.769663 0.00977078 0.00970199 5.14012e-06 0.00974473 1.71545e-07 272.785 
-0.47 -0.57 -0.115912 0.481487 0.00976993 0.00970431 -5.16596e-06 0.00973565 1.71345e-07 272.85 
-0.37 -0.61 -0.187472 0.662171 0.00977219 0.00970599 1.36911e-05 0.00973953 1.71481e-07 272.742 
-0.41 -0.59 -0.109833 0.668968 0.00977505 0.00970036 4.50668e-06 0.00973712 1.71386e-07 272.826 
-0.45 -0.57 -0.138935 0.658208 0.00976862 0.00970229 2.35642e-06 0.00973737 1.7136e-07 272.874 
-0.49 -0.55 -0.0667956 0.619013 0.0097526 0.00970579 -6.88385e-06 0.00973177 1.71277e-07 272.849 
-0.35 -0.61 -0.212093 0.612538 0.00976969 0.00969848 1.2678e-05 0.00973235 1.71342e-07 272.763 
-0.39 -0.59 -0.137521 0.587692 0.0097712 0.0096935 9.63193e-06 0.00973611 1.71332e-07 272.884 
-0.43 -0.57 -0.0317018 0.788524 0.00977276 0.0097009 5.79181e-06 0.00974127 1.71396e-07 272.927 
-0.47 -0.55 -0.18513 0.646297 0.00976288 0.0096951 5.53387e-07 0.00973422 1.71417e-07 272.696 
-0.33 -0.61 -0.380731 0.57731 0.00976383 0.00970119 1.82844e-05 0.00973474 1.7127e-07 272.943 
-0.37 -0.59 -0.189398 0.659966 0.00977419 0.00971226 1.95573e-05 0.00974661 1.71516e-07 272.884 
-0.41 -0.57 -0.106784 0.700547 0.00976543 0.00969803 1.18313e-05 0.00973631 1.71264e-07 272.997 
-0.45 -0.55 -0.220267 0.540077 0.00976295 0.00970283 3.12347e-06 0.00973301 1.713e-07 272.848 
-0.49 -0.53 0.0231956 0.689833 0.00976255 0.00969808 -4.70298e-06 0.00973759 1.71311e-07 272.959 
-0.35 -0.59 -0.345801 0.711134 0.00976519 0.00969322 1.49723e-05 0.00972704 1.71316e-07 272.655 
-0.39 -0.57 -0.238026 0.730903 0.00976627 0.00968765 1.04303e-05 0.00973252 1.71168e-07 273.044 
-0.43 -0.55 -0.227392 0.64919 0.0097607 0.00969358 9.05948e-06 0.00973304 1.71364e-07 272.746 
-0.47 -0.53 -0.0315822 0.626311 0.00975595 0.00969698 -4.93447e-07 0.00972799 1.71233e-07 272.814 
-0.29 -0.57 -0.565714 0.705601 0.00977355 0.0097141 1.814e-05 0.00974755 1.71465e-07 272.993 
-0.33 -0.55 -0.440922 0.862884 0.00978352 0.00970898 9.3958e-06 0.00974919 1.71463e-07 273.041 
-0.29 -0.61 -0.362193 0.595285 0.0097684 0.00971839 1.10218e-05 0.00974332 1.71566e-07 272.714 
-0.33 -0.59 -0.362686 0.827372 0.00976565 0.00970508 1.38374e-05 0.00973712 1.71323e-07 272.927 
-0.27 -0.61 -0.411704 0.57506 0.00977722 0.00971151 1.43016e-05 0.00974386 1.7153e-07 272.786 
-0.31 -0.59 -0.463751 0.591387 0.00976847 0.0097112 1.13692e-05 0.00973843 1.71389e-07 272.857 
-0.29 -0.59 -0.446841 0.519749 0.00977514 0.00972059 1.06779e-05 0.00974515 1.71526e-07 272.828 
-0.33 -0.57 -0.353496 0.774697 0.00978046 0.00971308 9.1547e-06 0.0097477 1.71393e-07 273.112 
-0.27 -0.59 -0.497238 0.698523 0.00976859 0.00970617 1.33398e-05 0.00973853 1.71462e-07 272.745 
-0.31 -0.57 -0.379226 0.679998 0.00977989 0.00970884 5.70999e-06 0.00974533 1.71491e-07 272.889 
-0.27 -0.57 -0.642857 0.674036 0.009767 0.00970528 2.33249e-05 0.00974559 1.71523e-07 272.845 
-0.31 -0.55 -0.428511 0.877841 0.00977493 0.00971037 1.85399e-05 0.0097455 1.71443e-07 272.97 
-0.29 -0.55 -0.525868 0.680949 0.00976343 0.00969762 2.12845e-05 0.00973249 1.7121e-07 272.976 
-0.33 -0.53 -0.283087 1.06156 0.00977544 0.00969799 1.28563e-05 0.00973901 1.71345e-07 272.944 
-0.27 -0.55 -0.371926 0.566613 0.00976639 0.00971123 2.00535e-05 0.00974072 1.71405e-07 272.897 
-0.31 -0.53 -0.39541 0.785742 0.00977422 0.00970519 2.27315e-05 0.00974304 1.71516e-07 272.785 
-0.29 -0.53 -0.30041 0.651702 0.00978348 0.00970317 1.89069e-05 0.00974754 1.71485e-07 272.96 
-0.33 -0.51 -0.281221 0.933878 0.00976739 0.00969116 1.66496e-05 0.0097304 1.71146e-07 273.02 
-0.27 -0.53 -0.499309 0.720418 0.0097799 0.00971014 2.24359e-05 0.00974219 1.71478e-07 272.821 
-0.31 -0.51 -0.29174 0.841695 0.00976992 0.00970501 1.71411e-05 0.00973405 1.71333e-07 272.824 
-0.29 -0.51 -0.449275 0.800122 0.00976388 0.0097003 2.26846e-05 0.00973857 1.71454e-07 272.759 
-0.27 -0.51 -0.596389 0.949221 0.00976219 0.00970384 2.71246e-05 0.00973756 1.71373e-07 272.859 
-0.33 -0.65 -0.344533 0.45913 0.00976645 0.00970694 1.80569e-05 0.00973598 1.71301e-07 272.929 
-0.31 -0.65 -0.235474 0.583836 0.00976478 0.00971405 1.34508e-05 0.00974069 1.71358e-07 272.971 
-0.29 -0.65 -0.392795 0.539368 0.00975929 0.00970505 1.30486e-05 0.00973456 1.71249e-07 272.973 
-0.33 -0.63 -0.32769 0.483381 0.00976438 0.00971081 9.89112e-06 0.00974048 1.71384e-07 272.923 
-0.27 -0.65 -0.441957 0.515531 0.00976729 0.00972202 1.28237e-05 0.00974518 1.71479e-07 272.903 
-0.31 -0.63 -0.518888 0.678807 0.00976222 0.00970683 1.79457e-05 0.00973853 1.71295e-07 273.011 
-0.25 -0.65 -0.580779 0.469312 0.00976269 0.00971556 1.49399e-05 0.00974078 1.7145e-07 272.826 
-0.29 -0.63 -0.536743 0.489782 0.00976729 0.00971725 1.35749e-05 0.00974272 1.7146e-07 272.865 
-0.27 -0.63 -0.498783 0.589907 0.00975705 0.00971418 1.49968e-05 0.00973585 1.71427e-07 272.725 
-0.31 -0.61 -0.43498 0.640728 0.00976853 0.00971181 1.47551e-05 0.00974334 1.71527e-07 272.776 
-0.49 -0.67 0.0561518 0.484936 0.00976814 0.00971576 -6.26564e-06 0.00974113 1.71464e-07 272.815 
-0.47 -0.67 0.0682318 0.399362 0.00976868 0.00972166 2.65779e-07 0.00974508 1.71498e-07 272.87 
-0.45 -0.67 0.11937 0.538504 0.00976885 0.00971464 4.56394e-06 0.00974654 1.71523e-07 272.872 
-0.43 -0.67 -0.0902905 0.580206 0.00977252 0.00971023 4.94802e-06 0.00974547 1.71594e-07 272.728 