ITEM: TIMESTEP
1052000
ITEM: NUMBER OF CELLS
5000
ITEM: BOX BOUNDS ss ss pp
-0.5 0.5
-1 1
-0.5 0.5
ITEM: CELLS xc yc f_U[*] f_V[*] f_Tau[1] f_Tau[2] f_Tau[3] f_Press[*] f_Mrho[*] f_Ttra[*] 
-0.49 -0.99 -0.0351546 0.0863458 0.00976241 0.00973438 8.73189e-06 0.00974881 1.71496e-07 272.978 
-0.47 -0.99 -0.120445 0.0264777 0.00974942 0.00971982 7.57737e-06 0.00973798 1.7143e-07 272.781 
-0.45 -0.99 -0.247519 0.0159554 0.00975164 0.00973107 5.89723e-06 0.00974482 1.7142e-07 272.987 
-0.49 -0.97 -0.0391129 0.145894 0.00974448 0.00972264 1.16878e-05 0.00973354 1.71324e-07 272.824 
-0.43 -0.99 -0.283539 -0.0474448 0.00974471 0.00972257 4.11756e-06 0.00973783 1.71299e-07 272.984 
-0.47 -0.97 -0.0934252 0.0837597 0.00974769 0.00972364 1.33466e-05 0.00973982 1.71378e-07 272.914 
-0.41 -0.99 -0.106301 -0.0727946 0.00974105 0.00972799 1.49073e-06 0.00973763 1.71315e-07 272.952 
-0.45 -0.97 -0.0344897 0.0705426 0.00974525 0.00973506 5.62151e-06 0.00974522 1.71444e-07 272.961 
-0.49 -0.95 0.0386364 0.0888345 0.00973406 0.00971387 2.50183e-06 0.00973094 1.71257e-07 272.859 
-0.39 -0.99 -0.157554 0.101002 0.0097444 0.00972725 3.01153e-06 0.0097363 1.71176e-07 273.138 
-0.43 -0.97 0.00400357 0.0596336 0.00974796 0.00972406 2.17675e-06 0.00974146 1.71346e-07 273.012 
-0.47 -0.95 0.0863487 0.0905633 0.0097503 0.00972714 -5.7722e-07 0.00973992 1.71384e-07 272.908 
-0.37 -0.99 -0.180873 -0.020676 0.0097429 0.00972844 8.55263e-06 0.00973843 1.71307e-07 272.988 
-0.41 -0.97 -0.189227 -0.172136 0.00974497 0.00972799 4.91291e-06 0.00973933 1.71381e-07 272.895 
-0.45 -0.95 0.187812 -0.0348734 0.00975866 0.00973981 6.34314e-06 0.0097553 1.71598e-07 272.997 
-0.49 -0.93 -0.0079977 0.0370559 0.00976992 0.00972364 -1.34974e-06 0.00975123 1.71552e-07 272.958 
-0.35 -0.99 -0.130733 -0.0915286 0.00973556 0.00970841 4.64204e-06 0.00971908 1.71076e-07 272.815 
-0.39 -0.97 -0.0400833 0.0486796 0.00974176 0.00972456 7.19504e-06 0.0097403 1.71438e-07 272.831 
-0.43 -0.95 0.150265 0.0761228 0.00975858 0.00972123 7.34339e-06 0.00974648 1.71483e-07 272.934 
-0.47 -0.93 0.0151959 0.0407613 0.00976015 0.00972227 6.21896e-07 0.00974556 1.71514e-07 272.858 
-0.33 -0.99 -0.0942932 0.0272612 0.00973375 0.00972781 6.10115e-06 0.00972794 1.71236e-07 272.807 
-0.37 -0.97 -0.00655135 -0.068317 0.00973941 0.00972809 5.54834e-06 0.00974115 1.71346e-07 273.003 
-0.41 -0.95 0.0487124 0.0427081 0.0097569 0.00972826 3.4857e-06 0.00974318 1.71536e-07 272.756 
-0.45 -0.93 -0.097726 0.0663261 0.00975618 0.00973244 5.9922e-06 0.00974586 1.71537e-07 272.83 
-0.49 -0.91 -0.0185517 0.154199 0.00977318 0.00972941 1.14922e-05 0.00975426 1.71482e-07 273.153 
-0.35 -0.97 -0.0411103 -0.0123501 0.00973795 0.00971066 9.90886e-06 0.00972817 1.71149e-07 272.952 
-0.39 -0.95 -0.139643 -0.0486182 0.00975384 0.00972377 7.50217e-06 0.00973934 1.71486e-07 272.729 
-0.43 -0.93 -0.0892922 0.0864999 0.00975434 0.0097258 3.08609e-06 0.00973699 1.714e-07 272.8 
-0.47 -0.91 -0.243169 0.0379532 0.0097639 0.00972329 6.27877e-06 0.0097443 1.71511e-07 272.828 
-0.33 -0.97 -0.110375 -0.0102569 0.00974353 0.00972491 6.23467e-06 0.00973911 1.71439e-07 272.797 
-0.37 -0.95 -0.132687 -0.0558583 0.00975506 0.00972214 1.26279e-05 0.00974253 1.71319e-07 273.084 
-0.41 -0.93 -0.0755015 0.0441537 0.0097519 0.00972291 1.13443e-05 0.00973145 1.71265e-07 272.86 
-0.45 -0.91 -0.0861454 0.0244757 0.00976407 0.00972582 5.93623e-06 0.00975032 1.71529e-07 272.968 
-0.49 -0.89 -0.00168227 0.142531 0.00977051 0.00972862 1.14704e-05 0.00975079 1.71472e-07 273.072 
-0.35 -0.95 -0.0650146 0.022788 0.00975507 0.00971692 4.28603e-06 0.00973929 1.71349e-07 272.945 
-0.39 -0.93 0.021239 -0.0401543 0.00974955 0.00972435 7.80632e-06 0.0097399 1.71572e-07 272.609 
-0.43 -0.91 -0.148839 0.060434 0.00976051 0.00973143 1.01064e-05 0.00974258 1.71322e-07 273.081 
-0.47 -0.89 0.10766 0.122009 0.00976965 0.00972978 9.17026e-06 0.00974814 1.71576e-07 272.832 
-0.37 -0.93 -0.0187707 -0.00206705 0.00975373 0.00972223 2.51863e-06 0.00974452 1.71416e-07 272.985 
-0.41 -0.91 -0.0379598 0.00136351 0.00976729 0.00971517 4.11657e-06 0.00973979 1.71343e-07 272.969 
-0.45 -0.89 -0.0798887 0.156001 0.00976162 0.0097192 4.91794e-06 0.00974333 1.71423e-07 272.941 
-0.49 -0.87 -0.0389554 0.160982 0.00975105 0.009716 -5.62543e-07 0.00973271 1.71283e-07 272.866 
-0.35 -0.93 -0.288125 0.0591883 0.0097572 0.0097192 8.97383e-06 0.00973768 1.71437e-07 272.761 
-0.39 -0.91 -0.0738795 -0.0570322 0.00977187 0.00973043 1.17774e-05 0.00975426 1.71712e-07 272.787 
-0.43 -0.89 -0.131754 0.0179118 0.00976743 0.00973816 5.57154e-06 0.00975323 1.71481e-07 273.125 
-0.47 -0.87 0.0843303 0.115428 0.00976004 0.00973082 1.06034e-05 0.00974174 1.71391e-07 272.948 
-0.37 -0.91 -0.232249 0.228122 0.00975726 0.00972095 1.0672e-05 0.00973946 1.71609e-07 272.536 
-0.41 -0.89 -0.138232 -0.0485613 0.00976 0.00971265 4.41042e-06 0.00974082 1.71482e-07 272.776 
-0.45 -0.87 -0.0796533 0.200498 0.0097654 0.00972049 9.93184e-06 0.00974918 1.7149e-07 272.999 
-0.49 -0.85 -0.0383884 0.147924 0.00975069 0.00971403 -1.63226e-07 0.00973003 1.712e-07 272.923 
-0.35 -0.91 -0.146709 0.128157 0.00974925 0.00972065 2.90368e-06 0.00973443 1.714e-07 272.728 
-0.39 -0.89 -0.0769135 0.129372 0.00975381 0.0097184 1.16097e-05 0.00974377 1.71482e-07 272.859 
-0.43 -0.87 -0.0838161 0.107098 0.0097533 0.00973794 1.16663e-05 0.00974851 1.71541e-07 272.899 
-0.47 -0.85 -0.112482 0.190159 0.00975296 0.00972201 2.12331e-06 0.00974255 1.71342e-07 273.048 
-0.33 -0.91 -0.183591 -0.0372573 0.00975418 0.00971725 1.16577e-05 0.00973856 1.71407e-07 272.833 
-0.37 -0.89 -0.1622 0.128562 0.00976277 0.00973267 1.6251e-05 0.009755 1.7168e-07 272.859 
-0.41 -0.87 -0.177611 -0.0549336 0.00975642 0.00971442 8.30036e-06 0.00973817 1.71521e-07 272.641 
-0.45 -0.85 -0.0804689 0.210996 0.00975818 0.00971882 7.69307e-06 0.00974355 1.71341e-07 273.077 
-0.35 -0.89 -0.209522 0.137738 0.00976485 0.00971891 1.09942e-05 0.00973849 1.71435e-07 272.787 
-0.39 -0.87 -0.262148 0.121238 0.00976399 0.0097153 6.39464e-06 0.00974388 1.71547e-07 272.759 
-0.43 -0.85 -0.182709 0.157061 0.00976974 0.00973938 8.09284e-06 0.00974985 1.71635e-07 272.786 
-0.37 -0.87 -0.302956 0.224303 0.0097699 0.00972911 8.3069e-06 0.0097535 1.7166e-07 272.848 
-0.41 -0.85 -0.17062 0.0626811 0.00976905 0.00971695 1.03224e-05 0.00974517 1.7158e-07 272.742 
-0.35 -0.87 -0.283859 0.095653 0.00976803 0.00972163 1.16242e-05 0.00974295 1.71466e-07 272.862 
-0.39 -0.85 -0.272412 0.312268 0.00976737 0.00971669 3.29461e-06 0.00974812 1.7157e-07 272.841 
-0.33 -0.87 -0.335144 0.127583 0.00976344 0.0097202 1.25725e-05 0.00974446 1.7154e-07 272.787 
-0.37 -0.85 -0.309374 0.0681388 0.00976641 0.00972239 1.05265e-05 0.00974714 1.71512e-07 272.906 
-0.35 -0.85 -0.227688 0.135443 0.00976648 0.0097194 1.31663e-05 0.00974358 1.71406e-07 272.975 
-0.33 -0.85 -0.351128 0.315248 0.00976789 0.00972364 1.31313e-05 0.00974307 1.71421e-07 272.937 
-0.31 -0.99 -0.0266996 -0.0192966 0.00972996 0.00971536 1.42441e-05 0.00972088 1.71194e-07 272.676 
-0.29 -0.99 -0.106799 0.0311226 0.00972961 0.00971711 9.20568e-06 0.00973002 1.71202e-07 272.92 
-0.27 -0.99 -0.142956 -0.00232251 0.00974324 0.00972821 6.51677e-06 0.00973472 1.71193e-07 273.066 
-0.31 -0.97 -0.360961 -0.00510099 0.00974879 0.0097203 6.82334e-06 0.00973744 1.71375e-07 272.853 
-0.29 -0.97 -0.409938 0.181848 0.00975671 0.00972076 7.86372e-06 0.00974924 1.71524e-07 272.946 
-0.33 -0.95 -0.076954 0.127373 0.00975206 0.00972248 9.8358e-06 0.00973899 1.71337e-07 272.957 
-0.27 -0.97 -0.304468 -0.107835 0.00974508 0.00972318 9.31898e-06 0.00973883 1.71378e-07 272.886 
-0.31 -0.95 -0.152825 0.210755 0.00975104 0.00972155 7.63482e-06 0.00973442 1.71319e-07 272.857 
-0.29 -0.95 -0.132203 0.0836234 0.0097456 0.0097118 8.94306e-06 0.00972857 1.71277e-07 272.76 
-0.33 -0.93 -0.254339 0.16558 0.00975821 0.00971848 3.03266e-06 0.00973687 1.71322e-07 272.921 
-0.27 -0.95 -0.333446 -0.0884536 0.00974977 0.00972887 6.61551e-06 0.00974031 1.71354e-07 272.966 
-0.31 -0.93 -0.0588445 0.075156 0.0097587 0.00971997 9.60188e-06 0.00974078 1.71565e-07 272.644 
-0.29 -0.93 -0.163167 0.232188 0.00976092 0.0097144 8.94321e-06 0.00973998 1.71457e-07 272.793 
-0.27 -0.93 -0.189411 0.124139 0.0097613 0.00972412 9.07426e-06 0.00974525 1.71524e-07 272.835 
-0.31 -0.91 -0.202012 0.183106 0.00975478 0.00971887 1.01141e-05 0.0097403 1.71481e-07 272.764 
-0.29 -0.91 -0.251907 0.174804 0.00975311 0.00971555 2.33892e-06 0.00973349 1.71399e-07 272.704 
-0.33 -0.89 -0.247483 0.011823 0.00975704 0.00971991 6.15003e-06 0.00974134 1.71432e-07 272.87 
-0.27 -0.91 -0.111454 0.143425 0.0097562 0.00972169 5.50559e-06 0.00973765 1.71494e-07 272.669 
-0.31 -0.89 -0.22071 0.200564 0.00976056 0.00972056 3.48353e-06 0.00974645 1.71523e-07 272.869 
-0.29 -0.89 -0.143283 0.0686556 0.00975824 0.00971539 9.02527e-06 0.00974201 1.71349e-07 273.022 
-0.27 -0.89 -0.285574 0.265983 0.00975126 0.0097187 1.00176e-05 0.00974228 1.7146e-07 272.853 
-0.31 -0.87 -0.463339 0.196116 0.00975832 0.00972188 7.44142e-06 0.00974074 1.71452e-07 272.822 
-0.29 -0.87 -0.436169 0.10047 0.00975436 0.00970919 9.63489e-06 0.00973777 1.71294e-07 272.991 
-0.27 -0.87 -0.389888 0.258166 0.00975647 0.00971965 1.56113e-05 0.00974268 1.71414e-07 272.937 
-0.31 -0.85 -0.360954 0.034203 0.00976408 0.00972427 1.61257e-05 0.00974836 1.71509e-07 272.945 
-0.29 -0.85 -0.25677 0.177057 0.00975502 0.00970741 1.23682e-05 0.00974061 1.71384e-07 272.927 
-0.27 -0.85 -0.289237 0.179793 0.00975385 0.00971785 1.07872e-05 0.00973935 1.71186e-07 273.207 
-0.25 -0.99 -0.251411 0.111562 0.00974918 0.00974016 1.16688e-05 0.00974807 1.71452e-07 273.027 
-0.25 -0.97 -0.1653 0.0970144 0.00974346 0.00973171 8.10898e-06 0.00974131 1.71453e-07 272.836 
-0.25 -0.95 -0.424856 0.0497329 0.0097486 0.00973196 9.17414e-06 0.00974328 1.71399e-07 272.979 
-0.25 -0.93 -0.225051 0.0451143 0.00976024 0.00973379 1.22328e-05 0.00974543 1.71551e-07 272.796 
-0.25 -0.91 -0.271604 0.0969765 0.00975695 0.00973058 1.0362e-05 0.00974574 1.71596e-07 272.733 
-0.25 -0.89 -0.320566 0.213312 0.0097478 0.00972184 1.53334e-05 0.0097357 1.71351e-07 272.842 
-0.25 -0.87 -0.395967 0.228559 0.00975194 0.00971673 1.61988e-05 0.00973812 1.71322e-07 272.955 
-0.25 -0.85 -0.221102 0.274097 0.00976215 0.00971982 1.08785e-05 0.00974541 1.71404e-07 273.029 
-0.25 -0.83 -0.414561 0.243116 0.00976131 0.00971696 7.55501e-06 0.00974331 1.71381e-07 273.008 
-0.33 -0.81 -0.123449 0.239534 0.00976293 0.0097129 1.38421e-05 0.00974027 1.71442e-07 272.826 
-0.31 -0.81 -0.229664 0.174262 0.00977833 0.00972427 1.34326e-05 0.00975345 1.71483e-07 273.128 
-0.29 -0.81 -0.23977 0.160952 0.00978011 0.00972421 1.09568e-05 0.00975545 1.71538e-07 273.098 
-0.27 -0.81 -0.320453 0.279045 0.00977673 0.0097188 1.25299e-05 0.00975339 1.71528e-07 273.055 
-0.31 -0.79 -0.248732 0.152852 0.00975851 0.00972043 7.65787e-06 0.00974081 1.71464e-07 272.805 
-0.29 -0.79 -0.311328 0.362408 0.00976095 0.00972081 1.14663e-05 0.00974054 1.71503e-07 272.736 
-0.33 -0.77 -0.323761 0.309506 0.00977008 0.00972331 1.77675e-05 0.00974578 1.71514e-07 272.865 
-0.27 -0.79 -0.389509 0.236648 0.00976403 0.00971376 1.1501e-05 0.00974104 1.71423e-07 272.876 
-0.31 -0.77 -0.293155 0.127442 0.0097665 0.00971783 1.16959e-05 0.00974305 1.71515e-07 272.787 
-0.29 -0.77 -0.282474 0.359218 0.00975895 0.00971883 1.03035e-05 0.00974045 1.7155e-07 272.659 
-0.27 -0.77 -0.339231 0.230479 0.00975618 0.00971088 8.8657e-06 0.00973749 1.71379e-07 272.847 
-0.31 -0.75 -0.1916 0.337985 0.00976642 0.0097208 1.26823e-05 0.00974945 1.71625e-07 272.791 
-0.29 -0.75 -0.483491 0.355369 0.00976748 0.00972145 1.44424e-05 0.00975045 1.71597e-07 272.864 
-0.27 -0.75 -0.513969 0.485072 0.00976731 0.0097085 1.82183e-05 0.00973648 1.71353e-07 272.861 
-0.49 -0.83 -0.00136894 0.239534 0.00975656 0.00971596 -6.3201e-07 0.00973659 1.71338e-07 272.888 
-0.47 -0.83 -0.126577 0.179843 0.00975695 0.00971887 2.20955e-06 0.00973921 1.71582e-07 272.573 
-0.45 -0.83 -0.136518 0.259427 0.00975623 0.00972136 1.30142e-07 0.00974174 1.71423e-07 272.896 
-0.49 -0.81 -0.0601761 0.274961 0.00976521 0.00971999 1.36775e-06 0.00974252 1.71474e-07 272.836 
-0.43 -0.83 -0.111377 0.246994 0.00975576 0.00972281 5.13584e-06 0.00974107 1.71454e-07 272.829 
-0.47 -0.81 -0.132602 0.239628 0.00976368 0.00971646 -3.47902e-07 0.00974462 1.71529e-07 272.809 
-0.45 -0.81 -0.0863152 0.261533 0.00976881 0.00972417 2.64653e-06 0.00974628 1.71512e-07 272.881 
-0.49 -0.79 -0.0433788 0.475975 0.00975939 0.00972192 3.98113e-06 0.00973982 1.7142e-07 272.847 
-0.43 -0.81 -0.0568193 0.262741 0.00976399 0.00971325 5.042e-06 0.00974133 1.71603e-07 272.599 
-0.47 -0.79 -0.0327311 0.117622 0.00975628 0.00971794 -4.69706e-06 0.00973906 1.71396e-07 272.864 
-0.41 -0.81 -0.21702 0.164686 0.00976628 0.00972789 1.10795e-05 0.00975205 1.71595e-07 272.912 
-0.45 -0.79 -0.0539455 0.270853 0.00975718 0.00971662 2.76643e-06 0.0097358 1.71422e-07 272.731 
-0.49 -0.77 0.0827956 0.376804 0.00975777 0.00972428 6.17317e-06 0.00974384 1.7139e-07 273.008 
-0.39 -0.81 -0.278503 0.23016 0.00975981 0.00971523 1.40367e-05 0.00974386 1.71572e-07 272.719 
-0.43 -0.79 -0.306613 0.348421 0.00976624 0.00971153 4.28895e-06 0.00973796 1.7152e-07 272.636 
-0.47 -0.77 0.0286713 0.272705 0.00975759 0.00972533 3.62354e-06 0.00974442 1.71436e-07 272.952 
-0.37 -0.81 -0.0455547 0.112716 0.0097581 0.00971857 1.09702e-05 0.0097392 1.71559e-07 272.609 
-0.41 -0.79 -0.294097 0.285434 0.00976805 0.00972392 8.95634e-06 0.00974965 1.71662e-07 272.738 
-0.45 -0.77 -0.244299 0.446456 0.00975666 0.00971238 -5.04868e-06 0.00973452 1.71425e-07 272.69 
-0.35 -0.81 -0.00751884 0.194074 0.00975176 0.00971277 6.8847e-06 0.00973614 1.71404e-07 272.77 
-0.39 -0.79 -0.220325 0.137494 0.00976635 0.00971304 9.77952e-06 0.0097406 1.7157e-07 272.631 
-0.43 -0.77 -0.190027 0.407482 0.00975534 0.00970993 1.78486e-06 0.00973292 1.7141e-07 272.671 
-0.37 -0.79 -0.257406 0.106481 0.00977413 0.00971799 1.2522e-05 0.00974369 1.71551e-07 272.748 
-0.41 -0.77 -0.216144 0.129411 0.00975573 0.00971067 9.73204e-06 0.00973409 1.71353e-07 272.793 
-0.35 -0.79 -0.238841 0.170403 0.00977458 0.00971717 1.41148e-05 0.00974682 1.71583e-07 272.784 
-0.39 -0.77 -0.109689 0.137186 0.00975786 0.00972139 1.17288e-05 0.00974503 1.71592e-07 272.719 
-0.43 -0.75 0.0601593 0.202487 0.00976603 0.00970643 -9.5567e-07 0.00974027 1.71439e-07 272.83 
-0.33 -0.79 -0.249383 0.288858 0.00976225 0.00971504 6.5834e-06 0.00973903 1.71443e-07 272.788 
-0.37 -0.77 -0.141531 0.194209 0.00975917 0.00971528 3.48716e-06 0.00973852 1.71447e-07 272.768 
-0.41 -0.75 -0.0192333 0.340505 0.00976848 0.00970299 6.63678e-06 0.00974263 1.71575e-07 272.68 
-0.35 -0.77 -0.36008 0.278679 0.00976809 0.00971456 8.87848e-06 0.00974118 1.71448e-07 272.841 
-0.39 -0.75 -0.229653 0.184457 0.00977359 0.00972421 7.84922e-06 0.0097511 1.71699e-07 272.719 
-0.49 -0.75 -0.0425327 0.313691 0.00976818 0.0097273 5.32134e-06 0.00975177 1.71507e-07 273.044 
-0.47 -0.75 -0.0877962 0.48932 0.009766 0.00973157 5.81026e-06 0.00974564 1.71425e-07 273.002 
-0.45 -0.75 -0.0958731 0.536416 0.00976437 0.00971173 2.0397e-08 0.00973496 1.71462e-07 272.644 
-0.49 -0.73 -0.0917563 0.493657 0.00976898 0.00971959 6.46159e-06 0.00974552 1.71425e-07 272.999 
-0.47 -0.73 -0.193437 0.463881 0.0097744 0.00974005 2.802e-06 0.00975431 1.71465e-07 273.182 
-0.45 -0.73 -0.0920062 0.289681 0.00977532 0.0097162 -3.01355e-06 0.00974219 1.71432e-07 272.894 
-0.49 -0.71 -0.0254415 0.626018 0.00977437 0.00971896 -5.98923e-07 0.00974562 1.71543e-07 272.815 
-0.43 -0.73 -0.0487289 0.37934 0.00976471 0.00970146 5.37139e-06 0.00973576 1.71382e-07 272.795 
-0.47 -0.71 -0.0504905 0.496757 0.00977543 0.00973802 1.79916e-06 0.00975581 1.71497e-07 273.172 
-0.37 -0.75 -0.234854 0.152363 0.00976637 0.0097173 1.12307e-05 0.00973918 1.71509e-07 272.687 
-0.41 -0.73 -0.143575 0.377166 0.00976445 0.00970037 1.67672e-07 0.00973607 1.71543e-07 272.547 
-0.45 -0.71 0.0259686 0.226671 0.00976397 0.00971389 9.42387e-06 0.00973842 1.713e-07 272.999 
-0.49 -0.69 0.0479126 0.578471 0.0097656 0.00971485 -6.0875e-06 0.00974253 1.71434e-07 272.901 
-0.35 -0.75 -0.0561675 0.247821 0.00975793 0.00970889 9.27025e-06 0.00973376 1.71368e-07 272.76 
-0.39 -0.73 -0.160492 0.222419 0.00976849 0.00971401 1.05383e-05 0.00974133 1.71482e-07 272.791 
-0.43 -0.71 -0.173431 0.390237 0.00976491 0.0097066 4.91942e-06 0.00973885 1.71556e-07 272.603 
-0.47 -0.69 0.142203 0.443098 0.00976827 0.00972624 5.87134e-06 0.00974809 1.71416e-07 273.085 
-0.37 -0.73 -0.287795 0.194278 0.0097727 0.0097211 1.11675e-05 0.00974501 1.71544e-07 272.795 
-0.41 -0.71 -0.1016 0.468234 0.00976857 0.00969571 9.82691e-07 0.00973548 1.7165e-07 272.36 
-0.45 -0.69 -0.0679123 0.400115 0.00977797 0.00971436 9.57806e-06 0.00974894 1.71518e-07 272.947 
-0.35 -0.73 -0.539766 0.351489 0.00977219 0.00971181 1.01256e-05 0.00974571 1.71577e-07 272.762 
-0.39 -0.71 -0.173996 0.240665 0.00976858 0.00971546 1.53921e-06 0.00973952 1.71513e-07 272.691 
-0.43 -0.69 -0.120477 0.451941 0.00977764 0.00971512 8.37124e-06 0.00975084 1.71743e-07 272.643 
-0.33 -0.73 -0.345238 0.149164 0.00977137 0.00970854 1.40349e-05 0.00974093 1.71582e-07 272.621 
-0.37 -0.71 -0.12951 0.255406 0.00977052 0.00971456 1.29613e-05 0.00974543 1.71558e-07 272.785 
-0.41 -0.69 -0.101539 0.355861 0.00976957 0.00970239 2.42742e-06 0.00973725 1.71613e-07 272.468 
-0.35 -0.71 -0.24036 0.474713 0.00977035 0.00970876 9.19495e-06 0.00974616 1.71566e-07 272.793 
-0.39 -0.69 -0.112473 0.399671 0.00976271 0.00970339 5.44251e-06 0.00973534 1.71416e-07 272.728 
-0.37 -0.69 -0.329806 0.331682 0.00976147 0.00971279 1.00385e-05 0.00974133 1.7151e-07 272.746 
-0.35 -0.69 -0.301612 0.520142 0.00976252 0.00970571 1.1811e-05 0.00973456 1.71366e-07 272.786 
-0.35 -0.67 -0.254035 0.442325 0.00977172 0.00971453 1.08391e-05 0.00974504 1.71497e-07 272.87 
-0.33 -0.67 -0.372377 0.550016 0.0097572 0.00970341 7.1628e-06 0.0097398 1.7149e-07 272.736 
-0.33 -0.75 -0.0987814 0.257293 0.00975987 0.00971651 1.0137e-05 0.009738 1.71402e-07 272.826 
-0.31 -0.73 -0.423531 0.484961 0.0097681 0.00972496 1.1737e-05 0.00975036 1.716e-07 272.856 
-0.29 -0.73 -0.349366 0.466956 0.009771 0.00971269 1.38069e-05 0.00975012 1.71514e-07 272.986 
-0.33 -0.71 -0.540302 0.137153 0.00976697 0.00971126 1.3692e-05 0.00974125 1.71498e-07 272.764 
-0.27 -0.73 -0.45066 0.554429 0.00976657 0.00971761 2.00474e-05 0.00974692 1.71463e-07 272.977 
-0.31 -0.71 -0.423461 0.461474 0.00976537 0.00972425 1.60799e-05 0.00974803 1.71565e-07 272.846 
-0.29 -0.71 -0.485495 0.449014 0.00975879 0.00970735 1.73106e-05 0.00973967 1.71316e-07 273.009 
-0.33 -0.69 -0.306365 0.292425 0.0097735 0.00971116 7.13418e-06 0.00974524 1.71643e-07 272.645 
-0.27 -0.71 -0.385376 0.453434 0.00976471 0.00971268 1.24594e-05 0.00974105 1.71325e-07 273.034 
-0.31 -0.69 -0.557861 0.453703 0.00977841 0.00971831 1.58047e-05 0.00975158 1.716e-07 272.891 
-0.29 -0.69 -0.543476 0.518364 0.00977773 0.00971371 1.8479e-05 0.00975094 1.71524e-07 272.993 
-0.27 -0.69 -0.575479 0.372004 0.00977505 0.00971711 1.30396e-05 0.00974628 1.71362e-07 273.12 
-0.31 -0.67 -0.425065 0.549971 0.00975652 0.00971405 1.24854e-05 0.00973981 1.71465e-07 272.775 
-0.29 -0.67 -0.427245 0.429425 0.00976273 0.00971271 1.62501e-05 0.00974172 1.71324e-07 273.054 
-0.41 -0.83 -0.167262 0.0794849 0.0097583 0.00972514 9.69102e-06 0.00974276 1.71558e-07 272.711 
-0.39 -0.83 -0.164443 0.304519 0.00975642 0.00971778 6.66498e-06 0.00973515 1.71448e-07 272.673 
-0.37 -0.83 -0.194614 0.228384 0.0097525 0.00971709 6.17812e-06 0.00973512 1.71297e-07 272.912 
-0.35 -0.83 -0.303268 0.070696 0.00975857 0.00971583 1.59944e-05 0.00973667 1.71384e-07 272.816 
-0.33 -0.83 -0.208995 0.33173 0.00975693 0.00972455 1.47227e-05 0.00973974 1.71299e-07 273.038 
-0.31 -0.83 -0.138504 -0.109625 0.00975024 0.00971381 1.94298e-05 0.00973991 1.71457e-07 272.791 
-0.29 -0.83 -0.249127 0.217331 0.00975799 0.00972062 1.66522e-05 0.00974693 1.71356e-07 273.148 
-0.27 -0.83 -0.308374 0.279903 0.00975828 0.00971644 7.26498e-06 0.00974466 1.71393e-07 273.025 
-0.27 -0.67 -0.465105 0.500282 0.00976081 0.00971917 1.80848e-05 0.00974182 1.71378e-07 272.97 
-0.25 -0.67 -0.537275 0.430389 0.00976955 0.00971824 1.18904e-05 0.00975134 1.71406e-07 273.192 
-0.25 -0.81 -0.303474 0.368765 0.00976324 0.00971516 6.94747e-06 0.00974293 1.71396e-07 272.972 
-0.25 -0.79 -0.273667 0.238189 0.00976904 0.00972212 2.02539e-05 0.00974411 1.71401e-07 272.998 
-0.35 -0.55 -0.209346 0.744661 0.00978392 0.00971149 7.09685e-06 0.00974616 1.71442e-07 272.989 
-0.39 -0.53 -0.232893 0.876643 0.00977559 0.00969239 4.26046e-06 0.00973731 1.71428e-07 272.765 
-0.37 -0.57 -0.263253 0.800561 0.00976909 0.00970508 1.24433e-05 0.00974342 1.71327e-07 273.096 
-0.41 -0.55 -0.21279 0.916527 0.00976022 0.00969914 7.77991e-06 0.00973645 1.71406e-07 272.775 
-0.45 -0.53 -0.085587 0.591495 0.00976091 0.00969758 -2.72106e-06 0.00972893 1.71302e-07 272.729 
-0.35 -0.57 -0.23591 0.758609 0.00977637 0.00970306 1.84793e-05 0.00974347 1.71454e-07 272.895 
-0.39 -0.55 -0.327064 0.732989 0.00976406 0.00968908 4.33548e-06 0.00973587 1.71333e-07 272.874 
-0.43 -0.53 -0.181561 0.870041 0.00976607 0.00969073 4.07069e-06 0.00973126 1.71404e-07 272.633 
-0.47 -0.51 -0.0611818 0.760501 0.00977159 0.00970048 -1.41769e-06 0.00973887 1.71518e-07 272.665 
-0.37 -0.55 -0.253442 0.762182 0.00976897 0.0096956 9.02726e-06 0.00973937 1.7128e-07 273.058 
-0.41 -0.53 -0.234849 0.765098 0.00977256 0.00969996 4.98729e-06 0.00973738 1.71476e-07 272.69 
-0.45 -0.51 -0.271494 0.719115 0.00976867 0.00969339 3.56835e-06 0.00973551 1.71455e-07 272.67 
-0.37 -0.53 -0.270972 0.720416 0.00977766 0.0096962 -1.84576e-06 0.00973958 1.71453e-07 272.789 
-0.41 -0.51 -0.269568 0.808246 0.00976272 0.00969978 -1.74074e-06 0.00973392 1.71394e-07 272.723 
-0.35 -0.53 -0.360164 0.770296 0.00977425 0.00970467 8.28623e-06 0.00974156 1.71482e-07 272.797 
-0.39 -0.51 -0.373775 0.891196 0.00976982 0.0096923 -4.13985e-07 0.00973311 1.71408e-07 272.679 
-0.37 -0.51 -0.369023 0.757428 0.00976905 0.00969143 4.60081e-06 0.00973068 1.71277e-07 272.819 
-0.35 -0.51 -0.423141 0.832655 0.0097664 0.00969862 1.02504e-05 0.00972675 1.71315e-07 272.648 
-0.49 -0.65 -0.0664921 0.47957 0.00977501 0.0097224 7.40154e-06 0.00975094 1.71526e-07 272.989 
-0.47 -0.65 -0.09788 0.441046 0.00976938 0.00971228 5.58229e-07 0.0097451 1.71442e-07 272.961 
-0.45 -0.65 -0.063466 0.626339 0.00976457 0.00971768 6.42466e-06 0.00974569 1.71625e-07 272.685 
-0.49 -0.63 0.0424836 0.457812 0.00976928 0.00972576 4.39145e-06 0.00975379 1.71781e-07 272.664 
-0.43 -0.65 0.00733296 0.579686 0.00975745 0.00969869 4.95126e-06 0.00973528 1.71453e-07 272.668 
-0.47 -0.63 0.043819 0.537451 0.00976525 0.00970692 2.8953e-06 0.00974341 1.71593e-07 272.673 
-0.41 -0.65 0.00133495 0.551272 0.0097624 0.00970579 1.00453e-05 0.00973797 1.71449e-07 272.75 
-0.45 -0.63 -0.0574125 0.582635 0.00977218 0.0097181 7.23418e-06 0.00974938 1.71644e-07 272.759 
-0.49 -0.61 -0.0393632 0.522703 0.0097583 0.00971158 -4.92265e-06 0.00974073 1.71404e-07 272.898 
-0.39 -0.65 -0.092721 0.452859 0.00975926 0.00971369 8.3949e-06 0.00973787 1.71304e-07 272.977 
-0.43 -0.63 -0.102195 0.613445 0.00977624 0.00970511 8.49094e-06 0.00974213 1.71339e-07 273.04 
-0.47 -0.61 -0.132875 0.519185 0.00976634 0.00971379 7.80551e-06 0.00974457 1.71496e-07 272.859 
-0.37 -0.65 -0.217064 0.48358 0.00975923 0.00970051 3.34532e-06 0.00972763 1.71134e-07 272.961 
-0.41 -0.63 -0.142109 0.600312 0.00977014 0.00969494 3.13188e-06 0.00973538 1.71365e-07 272.81 
-0.45 -0.61 -0.0836339 0.659073 0.00976456 0.0097094 -2.43181e-06 0.0097388 1.71371e-07 272.897 
-0.49 -0.59 0.00647898 0.508794 0.00977207 0.00970587 -6.48927e-06 0.00974633 1.71616e-07 272.719 
-0.35 -0.65 -0.309353 0.454557 0.0097672 0.00971325 1.268e-05 0.00973873 1.71425e-07 272.809 
-0.39 -0.63 -0.120974 0.498925 0.00977824 0.00971872 1.3461e-05 0.00974913 1.71545e-07 272.909 
-0.43 -0.61 -0.0160582 0.643483 0.00977217 0.00970744 4.37633e-06 0.00974114 1.71362e-07 272.977 
-0.47 -0.59 0.101892 0.555033 0.00977832 0.00971189 -5.60137e-06 0.00974788 1.71511e-07 272.929 
-0.37 -0.63 -0.202949 0.507333 0.00976339 0.0096995 1.13399e-05 0.00973006 1.71203e-07 272.919 
-0.41 -0.61 -0.0983073 0.568193 0.00977311 0.00969898 1.08276e-05 0.00973627 1.71291e-07 272.954 
-0.45 -0.59 0.103835 0.518804 0.00977929 0.00971225 3.81424e-06 0.00975143 1.7151e-07 273.029 
-0.49 -0.57 -0.0573977 0.48 0.00977924 0.00971013 -4.40755e-06 0.00974863 1.71549e-07 272.889 
-0.35 -0.63 -0.349854 0.595175 0.00975905 0.00970238 1.16992e-05 0.00973102 1.71284e-07 272.818 
-0.39 -0.61 -0.102557 0.467189 0.00977189 0.0097061 9.04384e-06 0.00973848 1.71347e-07 272.926 
-0.43 -0.59 -0.0184637 0.794046 0.0097708 0.00969872 5.82478e-06 0.00974391 1.71506e-07 272.826 
-0.47 -0.57 -0.107393 0.487539 0.00976889 0.00970541 -4.85026e-06 0.00973484 1.71325e-07 272.859 
-0.37 -0.61 -0.164246 0.711542 0.00977595 0.00970696 1.47175e-05 0.00974119 1.71511e-07 272.742 
-0.41 -0.59 -0.049605 0.575645 0.0097765 0.00970133 4.63504e-06 0.00973943 1.71376e-07 272.906 
-0.45 -0.57 -0.0986958 0.664228 0.00976849 0.009703 2.35757e-06 0.009738 1.71353e-07 272.902 
-0.49 -0.55 -0.0716657 0.624455 0.00975336 0.00970519 -5.94291e-06 0.00973282 1.71306e-07 272.833 
-0.35 -0.61 -0.205765 0.626455 0.00977184 0.00970028 1.12999e-05 0.00973289 1.71323e-07 272.808 
-0.39 -0.59 -0.0987269 0.624272 0.00977341 0.00969301 1.00145e-05 0.00973642 1.71328e-07 272.899 
-0.43 -0.57 0.0128888 0.762227 0.0097731 0.00969862 5.99702e-06 0.00974084 1.71378e-07 272.942 
-0.47 -0.55 -0.181642 0.639344 0.00976353 0.00969587 7.61281e-07 0.00973594 1.71434e-07 272.716 
-0.33 -0.61 -0.392935 0.596653 0.00976592 0.00970042 1.7639e-05 0.00973585 1.71284e-07 272.952 
-0.37 -0.59 -0.206367 0.678874 0.00977801 0.00971547 1.91947e-05 0.00974861 1.71547e-07 272.892 
-0.41 -0.57 -0.0770679 0.660711 0.00976654 0.00969973 1.16033e-05 0.00973713 1.71239e-07 273.06 
-0.45 -0.55 -0.202585 0.518108 0.00976159 0.00970283 3.10215e-06 0.0097316 1.71276e-07 272.846 
-0.49 -0.53 0.0380556 0.677474 0.00976284 0.0096961 -4.07264e-06 0.00973616 1.71329e-07 272.89 
-0.35 -0.59 -0.325152 0.761787 0.00976922 0.00969507 1.6395e-05 0.00972934 1.71323e-07 272.708 
-0.39 -0.57 -0.241416 0.765682 0.00976645 0.00968615 9.50349e-06 0.00973151 1.71144e-07 273.054 
-0.43 -0.55 -0.193044 0.646969 0.00975919 0.00969268 8.93281e-06 0.0097304 1.71331e-07 272.726 
-0.47 -0.53 0.00749646 0.609089 0.00975538 0.00969724 3.88503e-07 0.00972613 1.712e-07 272.813 
-0.29 -0.57 -0.604039 0.686868 0.0097742 0.00971409 1.87909e-05 0.00974599 1.71446e-07 272.979 
-0.33 -0.55 -0.409125 0.888811 0.00978384 0.00971048 9.40419e-06 0.00974913 1.71471e-07 273.027 
-0.29 -0.61 -0.341479 0.606899 0.00976967 0.00971803 1.01984e-05 0.00974377 1.71596e-07 272.678 
-0.33 -0.59 -0.306113 0.794655 0.00976784 0.00970429 1.43055e-05 0.00973812 1.71324e-07 272.952 
-0.27 -0.61 -0.433243 0.521367 0.00977735 0.00971244 1.36741e-05 0.00974619 1.71578e-07 272.774 
-0.31 -0.59 -0.410643 0.621278 0.00977095 0.00971335 1.05395e-05 0.00974077 1.7145e-07 272.826 
-0.29 -0.59 -0.364344 0.518212 0.00977637 0.0097201 1.05279e-05 0.0097455 1.71576e-07 272.758 
-0.33 -0.57 -0.329676 0.743138 0.00978096 0.00971351 9.29205e-06 0.00974753 1.71407e-07 273.083 
-0.27 -0.59 -0.482075 0.699139 0.00977022 0.00970688 1.24565e-05 0.00974003 1.71498e-07 272.73 
-0.31 -0.57 -0.404798 0.707286 0.00978034 0.00970898 5.98642e-06 0.00974442 1.71511e-07 272.832 
-0.27 -0.57 -0.635646 0.723459 0.00976605 0.00970671 2.42037e-05 0.00974552 1.71541e-07 272.815 
-0.31 -0.55 -0.401053 0.944568 0.00977338 0.00971057 1.92699e-05 0.00974337 1.71437e-07 272.919 
-0.29 -0.55 -0.515833 0.671315 0.00976161 0.00969541 2.21479e-05 0.00973064 1.71206e-07 272.931 
-0.33 -0.53 -0.315061 1.06922 0.00977233 0.00969829 1.49968e-05 0.00973756 1.71335e-07 272.919 
-0.27 -0.55 -0.406114 0.587749 0.00976612 0.00971286 2.03173e-05 0.00974095 1.71405e-07 272.902 
-0.31 -0.53 -0.398655 0.830129 0.00977208 0.00970559 2.39084e-05 0.00974192 1.71483e-07 272.806 
-0.29 -0.53 -0.27802 0.662134 0.00978137 0.00970176 1.89075e-05 0.00974709 1.71474e-07 272.965 
-0.33 -0.51 -0.260011 0.899732 0.00976324 0.00969152 1.62053e-05 0.00972993 1.71123e-07 273.044 
-0.27 -0.53 -0.431881 0.761731 0.00977851 0.00971189 2.24624e-05 0.00974347 1.715e-07 272.823 
-0.31 -0.51 -0.253107 0.894439 0.00976746 0.00970374 1.71057e-05 0.00973186 1.71313e-07 272.795 
-0.29 -0.51 -0.455805 0.807519 0.00976216 0.00970133 2.38066e-05 0.00973855 1.71455e-07 272.756 
-0.27 -0.51 -0.577323 0.962391 0.00975838 0.00970395 2.66406e-05 0.00973648 1.71357e-07 272.855 
-0.33 -0.65 -0.329379 0.485479 0.00976721 0.00970676 1.77945e-05 0.00973813 1.71314e-07 272.969 
-0.31 -0.65 -0.257444 0.57552 0.00976395 0.0097133 1.2308e-05 0.00974041 1.71324e-07 273.018 
-0.29 -0.65 -0.409038 0.526431 0.00975876 0.00970441 1.41492e-05 0.00973228 1.71208e-07 272.973 
-0.33 -0.63 -0.326187 0.515817 0.00976457 0.00971119 1.02847e-05 0.00974098 1.71401e-07 272.909 
-0.27 -0.65 -0.469998 0.50825 0.00976867 0.00972524 1.18498e-05 0.00974699 1.71504e-07 272.914 
-0.31 -0.63 -0.484018 0.65403 0.00976187 0.00970642 1.7678e-05 0.00973724 1.71292e-07 272.978 
-0.25 -0.65 -0.576818 0.439855 0.00976289 0.00971615 1.29374e-05 0.00974164 1.71477e-07 272.807 
-0.29 -0.63 -0.498574 0.474166 0.00976901 0.00971701 1.06179e-05 0.00974347 1.71503e-07 272.818 
-0.27 -0.63 -0.434375 0.570282 0.00975895 0.00971659 1.42521e-05 0.00973736 1.71457e-07 272.719 
-0.31 -0.61 -0.408193 0.605535 0.0097721 0.0097136 1.39398e-05 0.00974626 1.71595e-07 272.749 
-0.49 -0.67 0.0884129 0.492086 0.00976639 0.00971502 -5.94504e-06 0.00974045 1.71453e-07 272.813 
-0.47 -0.67 0.0561428 0.407139 0.00976611 0.00971992 1.89604e-07 0.00974336 1.71483e-07 272.846 
-0.45 -0.67 0.107003 0.565763 0.0097641 0.00971477 3.68203e-06 0.00974612 1.71522e-07 272.861 
-0.43 -0.67 -0.0927738 0.584952 0.00976994 0.00970821 5.33493e-06 0.00974336 1.71552e-07 272.736 