ITEM: TIMESTEP
844500
ITEM: NUMBER OF CELLS
5000
ITEM: BOX BOUNDS ss ss pp
-0.5 0.5
-1 1
-0.5 0.5
ITEM: CELLS xc yc f_U[*] f_V[*] f_Tau[1] f_Tau[2] f_Tau[3] f_Press[*] f_Mrho[*] f_Ttra[*] 
-0.49 -0.99 -0.110237 0.109344 0.00977026 0.00973684 9.75645e-06 0.00976806 1.71918e-07 272.846 
-0.47 -0.99 -0.145585 -0.0915529 0.00976001 0.00972691 -8.87755e-06 0.00975175 1.71745e-07 272.664 
-0.45 -0.99 -0.237934 -0.00687088 0.00974226 0.00971784 8.53719e-06 0.00973232 1.71408e-07 272.656 
-0.49 -0.97 -0.175767 0.196372 0.00972742 0.00972923 1.79522e-05 0.00973133 1.71091e-07 273.133 
-0.43 -0.99 -0.411777 0.24555 0.00972926 0.00973416 5.00774e-06 0.0097452 1.7119e-07 273.365 
-0.47 -0.97 -0.261712 0.14376 0.00972125 0.00972207 2.43297e-05 0.0097325 1.71331e-07 272.784 
-0.41 -0.99 -0.479317 -0.0397326 0.00972277 0.00974685 -3.66248e-06 0.00974132 1.71495e-07 272.771 
-0.45 -0.97 -0.147542 -0.107986 0.00972354 0.00972758 -1.59206e-06 0.0097309 1.7145e-07 272.549 
-0.49 -0.95 0.104807 0.229574 0.00970584 0.00970849 -6.25062e-06 0.00971264 1.70904e-07 272.907 
-0.39 -0.99 -0.446041 -0.290151 0.00972665 0.00972703 -1.26207e-05 0.00972906 1.70863e-07 273.434 
-0.43 -0.97 -0.0613969 0.14713 0.00974185 0.00974152 -6.82968e-06 0.00974674 1.71408e-07 273.061 
-0.47 -0.95 0.0937501 0.127907 0.00973077 0.00973049 2.12636e-06 0.00972299 1.7132e-07 272.535 
-0.37 -0.99 -0.235552 0.0798689 0.00972162 0.00971311 7.64215e-06 0.00971947 1.70957e-07 273.015 
-0.41 -0.97 -0.026087 -0.0407049 0.00973952 0.00975171 -4.25979e-06 0.00975445 1.71292e-07 273.461 
-0.45 -0.95 0.192826 -0.235641 0.00974949 0.00975029 6.57212e-06 0.00975219 1.71815e-07 272.566 
-0.49 -0.93 0.0529064 0.0834874 0.00975339 0.00972036 1.87208e-06 0.00974382 1.71482e-07 272.86 
-0.35 -0.99 -0.184917 -0.154264 0.00970245 0.00967423 9.34374e-06 0.00968635 1.70576e-07 272.692 
-0.39 -0.97 0.193738 -0.117766 0.00971601 0.0097165 1.91936e-05 0.0097279 1.71196e-07 272.871 
-0.43 -0.95 0.148349 0.154769 0.00974742 0.00973237 -6.77614e-06 0.00974176 1.71385e-07 272.958 
-0.47 -0.93 0.268519 0.0103013 0.00975505 0.00973714 -5.9943e-06 0.00974476 1.71488e-07 272.877 
-0.33 -0.99 -0.059126 0.095373 0.00970236 0.0097054 1.0958e-05 0.00970225 1.70761e-07 272.844 
-0.37 -0.97 -0.0101858 -0.129906 0.00969373 0.00970505 1.96591e-05 0.00970011 1.70726e-07 272.839 
-0.41 -0.95 -0.0137692 -0.199538 0.00973779 0.00973378 6.6969e-06 0.00973742 1.71423e-07 272.775 
-0.45 -0.93 0.163765 -0.0453649 0.0097435 0.00974411 -1.1889e-05 0.00972988 1.71504e-07 272.435 
-0.49 -0.91 0.197961 -0.14885 0.00979603 0.00974532 6.87363e-06 0.009772 1.71509e-07 273.606 
-0.35 -0.97 -0.106867 -0.157165 0.00969519 0.00968556 6.56148e-06 0.00968993 1.70386e-07 273.097 
-0.39 -0.95 -0.135283 -0.286198 0.00973318 0.00971494 1.76702e-05 0.0097155 1.71071e-07 272.721 
-0.43 -0.93 0.370946 -0.0174633 0.00973815 0.00972033 -4.06585e-06 0.00971602 1.71004e-07 272.843 
-0.47 -0.91 -0.169467 -0.0194515 0.00977846 0.00973363 -5.82828e-06 0.00974978 1.71823e-07 272.486 
-0.33 -0.97 -0.198197 -0.10677 0.00970066 0.00969304 7.25222e-06 0.00970779 1.71065e-07 272.514 
-0.37 -0.95 -0.188026 0.164991 0.00975092 0.00970823 3.10758e-05 0.00972863 1.71075e-07 273.084 
-0.41 -0.93 0.149553 -0.02696 0.00974251 0.00973516 2.76274e-05 0.00972431 1.71107e-07 272.911 
-0.45 -0.91 0.0677101 -0.299449 0.00977876 0.00974237 2.84236e-06 0.00974543 1.71504e-07 272.871 
-0.49 -0.89 -0.165507 0.0643355 0.00979751 0.00975459 4.24506e-06 0.00976619 1.71637e-07 273.24 
-0.35 -0.95 -0.168036 -0.0422046 0.00975222 0.00970548 5.3059e-06 0.00973474 1.71574e-07 272.46 
-0.39 -0.93 -0.177608 -0.0645506 0.00973534 0.00970289 1.16913e-05 0.0097113 1.70958e-07 272.783 
-0.43 -0.91 -0.162603 -0.00327455 0.00975577 0.00971468 1.22214e-05 0.00972907 1.70839e-07 273.473 
-0.47 -0.89 0.0119818 -0.122274 0.00978197 0.00973931 1.06816e-05 0.00975043 1.71837e-07 272.482 
-0.37 -0.93 -0.148554 -0.00984178 0.00975543 0.00970932 -9.97916e-06 0.00973575 1.71289e-07 272.942 
-0.41 -0.91 -0.201622 0.545501 0.00975405 0.00970864 8.38662e-06 0.00972443 1.7129e-07 272.623 
-0.45 -0.89 -0.31681 -0.053701 0.00976985 0.00972641 9.55708e-07 0.00974082 1.7134e-07 273.002 
-0.49 -0.87 0.00304076 0.107409 0.00975081 0.00973136 1.35724e-06 0.00973224 1.71252e-07 272.902 
-0.35 -0.93 -0.48547 0.328155 0.0097681 0.00971658 9.39367e-06 0.00973255 1.71312e-07 272.815 
-0.39 -0.91 -0.330116 -0.210604 0.00977736 0.0097333 8.07647e-06 0.00976064 1.71599e-07 273.145 
-0.43 -0.89 -0.513864 0.234253 0.00978212 0.00971799 1.82181e-05 0.00975989 1.71337e-07 273.542 
-0.47 -0.87 0.0442826 0.251804 0.00975155 0.00974465 6.11491e-06 0.00974268 1.71375e-07 272.999 
-0.37 -0.91 -0.196875 0.147663 0.00975772 0.00971163 3.94101e-06 0.00974156 1.7137e-07 272.976 
-0.41 -0.89 -0.458111 0.46344 0.00978108 0.00970438 3.85272e-07 0.00974983 1.71634e-07 272.788 
-0.45 -0.87 -0.49073 0.122384 0.0097626 0.00970751 1.39601e-05 0.00974665 1.71465e-07 272.966 
-0.49 -0.85 0.0731107 0.00963055 0.00974714 0.00972044 -4.74884e-06 0.00972771 1.71447e-07 272.465 
-0.35 -0.91 -0.145818 0.368272 0.00974921 0.00970647 -3.38271e-06 0.00971893 1.71011e-07 272.914 
-0.39 -0.89 -0.260117 0.0474625 0.00977101 0.00973221 1.65385e-05 0.00975672 1.71584e-07 273.06 
-0.43 -0.87 -0.216877 0.165477 0.00975496 0.00973406 9.05297e-06 0.00975863 1.71706e-07 272.919 
-0.47 -0.85 0.0117045 0.441754 0.00976741 0.00974534 1.4104e-05 0.00975923 1.71594e-07 273.114 
-0.33 -0.91 -0.544721 0.155409 0.00975972 0.00970759 3.775e-06 0.00972643 1.71191e-07 272.836 
-0.37 -0.89 -0.322972 -0.133249 0.00976987 0.00972437 2.00673e-05 0.00975245 1.7134e-07 273.329 
-0.41 -0.87 -0.121599 0.458975 0.00976175 0.00972217 8.83771e-06 0.00975664 1.71676e-07 272.912 
-0.45 -0.85 -0.0680708 0.291392 0.00976084 0.00971045 9.22924e-06 0.00973563 1.71369e-07 272.811 
-0.35 -0.89 -0.362235 0.662505 0.00977101 0.00970707 -1.62994e-06 0.00973209 1.71334e-07 272.767 
-0.39 -0.87 -0.240846 -0.159654 0.00977114 0.00970689 4.13867e-07 0.00973695 1.71578e-07 272.516 
-0.43 -0.85 -0.293537 0.264019 0.0097713 0.00973137 -5.68041e-06 0.00974301 1.71673e-07 272.534 
-0.37 -0.87 -0.374783 0.123855 0.00977482 0.0097385 8.68152e-07 0.00975908 1.71684e-07 272.967 
-0.41 -0.85 -0.265185 0.530334 0.00977838 0.00972073 7.64502e-06 0.00974866 1.7169e-07 272.666 
-0.35 -0.87 -0.055414 0.291544 0.00978254 0.00972248 5.33204e-06 0.00975904 1.71639e-07 273.038 
-0.39 -0.85 -0.41362 0.26787 0.00976559 0.00971996 3.92513e-06 0.0097394 1.71583e-07 272.577 
-0.33 -0.87 -0.139861 0.17988 0.00976963 0.00970302 1.06203e-05 0.00974232 1.71339e-07 273.047 
-0.37 -0.85 -0.615383 -0.307973 0.00976913 0.00973124 5.33142e-06 0.0097568 1.71708e-07 272.865 
-0.35 -0.85 -0.475753 0.10474 0.00975742 0.00972039 1.01329e-05 0.00974283 1.71344e-07 273.052 
-0.33 -0.85 -0.322003 0.526928 0.00974627 0.00969132 1.63215e-05 0.00971842 1.71072e-07 272.802 
-0.31 -0.99 -0.068041 0.0726948 0.00970375 0.00967997 1.48374e-05 0.00969214 1.70817e-07 272.47 
-0.29 -0.99 -0.460028 0.299482 0.00971346 0.00969785 -4.08035e-06 0.00969576 1.70855e-07 272.511 
-0.27 -0.99 -0.390378 -0.369812 0.00975138 0.00974231 7.7027e-07 0.00973623 1.71259e-07 273.004 
-0.31 -0.97 -0.587954 0.266459 0.00973023 0.00970578 -1.08581e-05 0.00972755 1.71379e-07 272.569 
-0.29 -0.97 -0.39481 0.063779 0.00974346 0.00970774 -1.65965e-06 0.00973102 1.71232e-07 272.9 
-0.33 -0.95 -0.263355 0.145399 0.00975731 0.00970679 -9.23276e-06 0.00973416 1.71402e-07 272.718 
-0.27 -0.97 0.0729773 -0.392197 0.00972537 0.00972445 -7.31894e-06 0.00973111 1.71556e-07 272.387 
-0.31 -0.95 -0.0744016 0.397621 0.00974416 0.00969997 -2.50635e-07 0.00971957 1.71459e-07 272.218 
-0.29 -0.95 -0.0720709 -0.249245 0.00973886 0.00969841 -6.29483e-07 0.00971732 1.71402e-07 272.245 
-0.33 -0.93 -0.293751 -0.0911633 0.00976491 0.0097044 5.03849e-06 0.00973367 1.7129e-07 272.882 
-0.27 -0.95 -0.37072 -0.3796 0.00974344 0.0097454 -2.72492e-06 0.00974022 1.71511e-07 272.714 
-0.31 -0.93 -0.319032 0.194805 0.00976334 0.00970755 -2.65772e-06 0.00972931 1.71316e-07 272.718 
-0.29 -0.93 -0.354648 -0.0053133 0.00976392 0.00969952 -3.76316e-06 0.00973491 1.71633e-07 272.371 
-0.27 -0.93 -0.0772839 -0.347994 0.00978524 0.00974196 -9.36152e-06 0.00977592 1.72191e-07 272.632 
-0.31 -0.91 -0.307789 0.0843512 0.00976837 0.00970549 7.34681e-06 0.0097426 1.71621e-07 272.606 
-0.29 -0.91 -0.255678 -0.275603 0.00975755 0.00971394 -1.75463e-05 0.00972847 1.71386e-07 272.583 
-0.33 -0.89 -0.184886 -0.0798145 0.00977044 0.00971423 -1.05973e-05 0.00974023 1.71175e-07 273.249 
-0.27 -0.91 -0.511068 -0.228271 0.00974911 0.00971325 -1.1784e-05 0.00972666 1.71421e-07 272.477 
-0.31 -0.89 -0.21944 -0.0309097 0.00977392 0.00969504 -3.92836e-06 0.00974057 1.71576e-07 272.62 
-0.29 -0.89 -0.0106215 -0.291557 0.00977552 0.0097395 -4.4082e-06 0.00975751 1.71498e-07 273.218 
-0.27 -0.89 -0.188855 0.0994696 0.00975582 0.00970473 -2.19429e-06 0.00973584 1.71581e-07 272.48 
-0.31 -0.87 -0.309733 -0.133387 0.00973853 0.00969777 3.61221e-06 0.00972496 1.71311e-07 272.605 
-0.29 -0.87 -0.434458 -0.27892 0.00972519 0.00973169 8.59281e-06 0.0097382 1.71379e-07 272.868 
-0.27 -0.87 -0.465802 0.492035 0.0097306 0.00971508 -1.58778e-06 0.00971818 1.71343e-07 272.363 
-0.31 -0.85 -0.378369 -0.23574 0.00976284 0.00971632 1.33716e-05 0.00973807 1.71669e-07 272.402 
-0.29 -0.85 -0.324377 0.0566531 0.0097489 0.00972962 1.13493e-05 0.00974736 1.7161e-07 272.756 
-0.27 -0.85 -0.450691 0.498223 0.00973961 0.00972122 5.92903e-06 0.00973783 1.70876e-07 273.66 
-0.25 -0.99 -0.239889 0.0385565 0.00976226 0.00976338 4.70982e-06 0.00976186 1.71655e-07 273.091 
-0.25 -0.97 -0.0127073 0.173174 0.00973422 0.00975621 -1.13258e-05 0.00974709 1.71409e-07 273.068 
-0.25 -0.95 -0.271972 0.216465 0.00972767 0.00974423 -5.07526e-06 0.00974665 1.71508e-07 272.898 
-0.25 -0.93 -0.287774 0.0968786 0.00977293 0.00973944 9.54427e-06 0.00975342 1.71607e-07 272.931 
-0.25 -0.91 -0.159619 -0.0222687 0.00975139 0.00972971 8.20277e-06 0.00974003 1.71461e-07 272.788 
-0.25 -0.89 -0.631358 0.0224821 0.00976088 0.00971954 2.08055e-06 0.00973601 1.71318e-07 272.903 
-0.25 -0.87 -0.863633 -0.0522489 0.00972164 0.00970659 3.5551e-06 0.00972479 1.71022e-07 273.06 
-0.25 -0.85 -0.262934 0.304641 0.00974831 0.00970723 -1.3335e-05 0.00973714 1.71141e-07 273.218 
-0.25 -0.83 -0.194422 -0.00472781 0.00976011 0.00969848 2.96029e-06 0.00974746 1.71236e-07 273.355 
-0.33 -0.81 0.0868344 0.100645 0.00976865 0.00970562 3.98457e-07 0.0097319 1.71292e-07 272.83 
-0.31 -0.81 -0.24115 0.214138 0.00979512 0.00971849 4.65335e-06 0.00975832 1.71397e-07 273.403 
-0.29 -0.81 -0.267147 -0.15021 0.0097852 0.00973342 -1.48007e-06 0.00976269 1.7153e-07 273.313 
-0.27 -0.81 0.0458383 0.369724 0.00978148 0.00973028 1.21823e-05 0.0097693 1.71684e-07 273.253 
-0.31 -0.79 0.203127 0.336406 0.00975637 0.00971451 -3.98204e-06 0.00973218 1.71371e-07 272.711 
-0.29 -0.79 -0.172525 0.187801 0.00975653 0.00972592 -1.70492e-06 0.00973537 1.71388e-07 272.774 
-0.33 -0.77 -0.279738 0.102072 0.00975972 0.00972673 1.55332e-05 0.00973942 1.71451e-07 272.787 
-0.27 -0.79 -0.538249 0.179006 0.00974371 0.00969941 8.90383e-06 0.00972961 1.71121e-07 273.037 
-0.31 -0.77 -0.252853 0.322064 0.00974856 0.00970175 2.46285e-06 0.00972741 1.71367e-07 272.583 
-0.29 -0.77 -0.288246 0.75866 0.00975881 0.00972795 9.09384e-06 0.00974087 1.71593e-07 272.602 
-0.27 -0.77 -0.562361 0.265368 0.00976288 0.00969423 5.84273e-06 0.00974059 1.71697e-07 272.428 
-0.31 -0.75 0.151017 0.819982 0.00976113 0.00971749 2.36339e-06 0.00975809 1.71872e-07 272.641 
-0.29 -0.75 -0.401847 0.85382 0.00975923 0.00972408 1.1464e-05 0.00973907 1.71506e-07 272.69 
-0.27 -0.75 -0.52559 0.489633 0.00975518 0.00969434 1.18048e-05 0.00972735 1.71349e-07 272.611 
-0.49 -0.83 -0.165734 0.171832 0.00975625 0.00971383 2.12981e-06 0.00974338 1.71526e-07 272.779 
-0.47 -0.83 -0.0352768 0.184877 0.00975454 0.00972666 -1.59908e-06 0.00974313 1.71567e-07 272.707 
-0.45 -0.83 0.326726 0.332603 0.00975917 0.00973151 1.30554e-06 0.00974603 1.71413e-07 273.032 
-0.49 -0.81 0.112172 -0.0721155 0.00976545 0.00971861 -1.39176e-06 0.00975613 1.71587e-07 273.039 
-0.43 -0.83 0.201711 0.323674 0.00974543 0.00971144 5.73888e-06 0.00972711 1.71415e-07 272.499 
-0.47 -0.81 0.00787563 0.282869 0.00976084 0.00972204 -1.08941e-06 0.00976165 1.71664e-07 273.071 
-0.45 -0.81 -0.202784 0.24804 0.00977292 0.00972142 1.17509e-05 0.00975234 1.71854e-07 272.508 
-0.49 -0.79 -0.264814 0.277501 0.00975042 0.0097255 4.39474e-06 0.00973997 1.71597e-07 272.57 
-0.43 -0.81 -0.300553 0.536535 0.00978865 0.00972702 1.68954e-06 0.00975255 1.71774e-07 272.641 
-0.47 -0.79 -0.202069 0.201779 0.00974813 0.00971536 -7.31888e-06 0.00973057 1.71406e-07 272.611 
-0.41 -0.81 -0.41906 0.886615 0.00974817 0.00970192 1.6946e-05 0.00973394 1.71414e-07 272.693 
-0.45 -0.79 -0.317294 0.448106 0.00973674 0.00972056 -6.0891e-06 0.00972874 1.71437e-07 272.51 
-0.49 -0.77 0.270918 0.222058 0.00973449 0.0097273 4.61067e-06 0.00972661 1.71226e-07 272.786 
-0.39 -0.81 -0.459675 0.172819 0.00974167 0.00970961 1.33032e-05 0.00975333 1.71672e-07 272.824 
-0.43 -0.79 -0.439949 0.628401 0.00974923 0.00971376 7.05922e-06 0.00973793 1.7147e-07 272.716 
-0.47 -0.77 -0.197669 0.500397 0.00973391 0.00971006 2.94087e-06 0.00971716 1.71072e-07 272.766 
-0.37 -0.81 0.184817 -0.0723305 0.00974788 0.00973134 -4.08074e-07 0.0097466 1.71714e-07 272.57 
-0.41 -0.79 -0.522358 0.597022 0.00978123 0.00970704 6.36777e-06 0.00975242 1.71939e-07 272.376 
-0.45 -0.77 -0.729613 0.984745 0.00975151 0.00973247 -8.44603e-06 0.00974675 1.7164e-07 272.692 
-0.35 -0.81 0.03706 0.141075 0.00975679 0.0097108 5.57092e-06 0.00974859 1.71523e-07 272.93 
-0.39 -0.79 0.0735876 -0.28815 0.00978543 0.00971183 6.77998e-06 0.00975611 1.71785e-07 272.724 
-0.43 -0.77 -0.775509 0.46891 0.00973176 0.00970341 -6.14945e-06 0.00971865 1.71199e-07 272.605 
-0.37 -0.79 -0.126858 0.037088 0.00979453 0.00973952 1.17416e-05 0.00976553 1.71902e-07 272.8 
-0.41 -0.77 -0.32255 0.0341893 0.00971996 0.00969567 8.9761e-08 0.00971281 1.7139e-07 272.138 
-0.35 -0.79 0.0643635 0.25608 0.00977809 0.00971391 4.08029e-06 0.00974735 1.71821e-07 272.421 
-0.39 -0.77 -0.0525176 -0.0739931 0.00973497 0.00972515 -1.14199e-06 0.00974842 1.7172e-07 272.611 
-0.43 -0.75 0.109084 0.34839 0.00974058 0.00970338 5.2843e-06 0.00973069 1.71344e-07 272.712 
-0.33 -0.79 0.0356173 0.183334 0.00976505 0.00971304 -1.73547e-06 0.00973103 1.71552e-07 272.392 
-0.37 -0.77 0.117601 0.00597422 0.00974132 0.00971902 1.0613e-06 0.00973157 1.71327e-07 272.765 
-0.41 -0.75 0.0679247 0.0354252 0.00974202 0.00970914 1.54909e-06 0.00973139 1.71382e-07 272.672 
-0.35 -0.77 0.00151161 0.429737 0.00975748 0.00972213 2.17795e-06 0.00975099 1.71159e-07 273.576 
-0.39 -0.75 -0.153979 0.0691864 0.0097392 0.00970819 -5.09888e-06 0.00973443 1.7146e-07 272.632 
-0.49 -0.75 -0.186754 0.190701 0.00973154 0.00972226 -8.82066e-07 0.00972909 1.70719e-07 273.666 
-0.47 -0.75 -0.207908 0.816047 0.00974286 0.0097287 -1.41707e-05 0.00973123 1.70963e-07 273.336 
-0.45 -0.75 0.0701796 0.874993 0.00973954 0.00971274 -7.83641e-06 0.00972711 1.71399e-07 272.525 
-0.49 -0.73 -0.0999469 0.377555 0.00978873 0.00972544 4.64695e-06 0.00976083 1.71216e-07 273.762 
-0.47 -0.73 -0.0965454 0.806797 0.0097725 0.00974999 -1.89989e-06 0.00976475 1.71208e-07 273.884 
-0.45 -0.73 0.0369315 0.258609 0.00976405 0.00970053 -1.00631e-05 0.00973371 1.71456e-07 272.62 
-0.49 -0.71 -0.10862 0.440527 0.00980482 0.00974059 1.04308e-05 0.00978656 1.71963e-07 273.291 
-0.43 -0.73 0.407843 0.45106 0.00975415 0.00970377 1.04435e-06 0.00973846 1.71311e-07 272.983 
-0.47 -0.71 -0.178429 0.545402 0.00980702 0.00974763 4.38414e-06 0.00977739 1.71663e-07 273.513 
-0.37 -0.75 -0.392065 -0.237357 0.00972856 0.00972655 7.51734e-06 0.0097197 1.7145e-07 272.236 
-0.41 -0.73 0.397947 0.295091 0.00975275 0.00970512 -5.3085e-06 0.00973358 1.71243e-07 272.954 
-0.45 -0.71 0.412827 0.0768758 0.00978154 0.00970531 1.0198e-05 0.00974968 1.71622e-07 272.802 
-0.49 -0.69 -0.0128395 0.50294 0.00977364 0.00972926 -1.02706e-05 0.00976071 1.71528e-07 273.26 
-0.35 -0.75 -0.106096 0.179266 0.00973658 0.00972638 3.68288e-06 0.0097316 1.71345e-07 272.736 
-0.39 -0.73 0.297272 -0.159774 0.00975563 0.00969867 2.36752e-06 0.00972064 1.71113e-07 272.799 
-0.43 -0.71 0.177934 0.195463 0.00977371 0.00970829 3.50301e-06 0.00974207 1.71564e-07 272.681 
-0.47 -0.69 0.50255 0.0351163 0.0097768 0.00972367 2.04797e-05 0.00975933 1.71535e-07 273.21 
-0.37 -0.73 0.316213 0.115384 0.00976529 0.0097292 7.08063e-06 0.00973695 1.71684e-07 272.347 
-0.41 -0.71 0.457077 0.48547 0.00977881 0.00969741 -2.56106e-06 0.00974726 1.71859e-07 272.359 
-0.45 -0.69 0.197791 0.427774 0.00979534 0.00972138 1.89335e-05 0.00976691 1.71973e-07 272.726 
-0.35 -0.73 -0.147679 0.154764 0.00975548 0.00972218 2.97408e-06 0.00974999 1.71538e-07 272.944 
-0.39 -0.71 0.280845 0.0605515 0.00977715 0.00971183 2.43126e-06 0.00974767 1.7173e-07 272.574 
-0.43 -0.69 -0.0250983 0.270523 0.00979776 0.00972614 4.75727e-06 0.00976599 1.72306e-07 272.175 
-0.33 -0.73 -0.248129 -0.0447192 0.00975135 0.00971154 9.97684e-06 0.00975053 1.7185e-07 272.464 
-0.37 -0.71 0.131333 0.0125297 0.00975487 0.00971902 3.71539e-06 0.00975214 1.71721e-07 272.714 
-0.41 -0.69 0.0413749 -0.0198129 0.00977611 0.00970599 2.57723e-06 0.00974251 1.71603e-07 272.632 
-0.35 -0.71 -0.140728 0.492958 0.0097444 0.00971323 4.51201e-06 0.00975691 1.71736e-07 272.823 
-0.39 -0.69 0.0208845 0.28867 0.00976322 0.00969522 9.11387e-06 0.00973146 1.71491e-07 272.501 
-0.37 -0.69 -0.106975 0.265371 0.00978088 0.00971204 8.17007e-06 0.00976136 1.71769e-07 272.896 
-0.35 -0.69 -0.0445844 0.680087 0.00979301 0.0097302 1.04097e-05 0.00976714 1.71614e-07 273.304 
-0.35 -0.67 -0.0330883 0.496013 0.0097888 0.00974404 1.04182e-05 0.00976353 1.71543e-07 273.315 
-0.33 -0.67 -0.0571401 0.610578 0.00977283 0.0097155 9.74191e-09 0.00975384 1.71682e-07 272.824 
-0.33 -0.75 0.437699 0.181489 0.00974618 0.00970622 1.22482e-06 0.00973793 1.71675e-07 272.389 
-0.31 -0.73 -0.0859457 0.960751 0.00975709 0.00972467 -6.85377e-06 0.00974707 1.71597e-07 272.769 
-0.29 -0.73 0.206763 1.08811 0.00974474 0.00970184 -1.86441e-06 0.00973164 1.71348e-07 272.733 
-0.33 -0.71 -0.431951 0.00558014 0.0097615 0.00972993 -3.22133e-06 0.00974899 1.71652e-07 272.736 
-0.27 -0.73 -0.0864138 0.843502 0.00975238 0.00971506 1.57216e-05 0.00973909 1.71083e-07 273.365 
-0.31 -0.71 -0.25872 0.552059 0.00974807 0.00971942 1.32263e-05 0.00975555 1.71815e-07 272.659 
-0.29 -0.71 -0.0554907 0.83358 0.00973977 0.00969381 7.35543e-06 0.00973175 1.71404e-07 272.647 
-0.33 -0.69 -0.227454 0.25666 0.00978144 0.00971584 -7.84498e-06 0.00975919 1.71879e-07 272.66 
-0.27 -0.71 0.35852 0.931395 0.00975465 0.00970726 -1.27803e-06 0.00973682 1.71364e-07 272.852 
-0.31 -0.69 -0.563128 0.252332 0.00978169 0.0097087 1.348e-05 0.00975204 1.71779e-07 272.618 
-0.29 -0.69 -0.421395 0.477551 0.00978296 0.00971509 8.42953e-06 0.00976125 1.71882e-07 272.713 
-0.27 -0.69 -0.204988 0.827201 0.00977163 0.00970344 1.10377e-06 0.00975033 1.71315e-07 273.309 
-0.31 -0.67 -0.164725 0.530156 0.00977011 0.0096949 2.64149e-06 0.00973645 1.71507e-07 272.615 
-0.29 -0.67 -0.49981 0.531052 0.00978036 0.00972526 8.85682e-06 0.00975963 1.71607e-07 273.105 
-0.41 -0.83 -0.0500436 0.577652 0.00975971 0.00972436 -4.92834e-06 0.00974669 1.71687e-07 272.615 
-0.39 -0.83 -0.16338 0.491325 0.0097588 0.00971057 1.39854e-05 0.00973348 1.7152e-07 272.511 
-0.37 -0.83 -0.23507 0.078932 0.00974716 0.0097291 1.65665e-05 0.00974754 1.71799e-07 272.461 
-0.35 -0.83 -0.284605 0.107696 0.00975554 0.00971355 1.52272e-05 0.00972915 1.71341e-07 272.674 
-0.33 -0.83 -0.267195 0.158267 0.0097614 0.00970325 4.5221e-06 0.00973253 1.71103e-07 273.148 
-0.31 -0.83 0.0637826 -0.267896 0.00975202 0.00969988 3.9887e-06 0.00974293 1.71405e-07 272.959 
-0.29 -0.83 -0.116825 0.142737 0.00977237 0.00974235 6.54836e-06 0.00977553 1.71627e-07 273.517 
-0.27 -0.83 -0.260962 0.486106 0.00978066 0.00973773 1.01984e-05 0.00977111 1.71636e-07 273.379 
-0.27 -0.67 -0.631989 0.559571 0.00976737 0.00970176 1.91673e-05 0.00975154 1.71525e-07 273.008 
-0.25 -0.67 -0.34681 0.775342 0.00977351 0.00969538 2.58924e-06 0.00974756 1.71501e-07 272.936 
-0.25 -0.81 -0.0455215 0.274449 0.00976711 0.00971549 1.65955e-05 0.00975226 1.71309e-07 273.373 
-0.25 -0.79 -0.510927 0.157768 0.00978221 0.00973659 1.88039e-05 0.00975742 1.71323e-07 273.494 
-0.35 -0.55 -0.0435947 0.959843 0.00979299 0.0097195 8.42631e-06 0.00975742 1.71744e-07 272.825 
-0.39 -0.53 0.093224 1.09849 0.00977074 0.00968947 6.0232e-06 0.00973962 1.71373e-07 272.917 
-0.37 -0.57 -0.12387 1.02223 0.00977497 0.00971136 1.02068e-05 0.00975042 1.71389e-07 273.194 
-0.41 -0.55 0.16384 1.1032 0.00974433 0.0097162 -1.15797e-05 0.00973752 1.71615e-07 272.473 
-0.45 -0.53 0.305232 0.465713 0.00976968 0.00970038 -5.92268e-07 0.00972273 1.71283e-07 272.587 
-0.35 -0.57 -0.0507101 0.795929 0.00976373 0.00970439 2.8137e-05 0.00973536 1.7138e-07 272.787 
-0.39 -0.55 -0.248392 0.907321 0.00975386 0.00969632 1.39999e-05 0.00974103 1.71438e-07 272.852 
-0.43 -0.53 -0.194643 0.447154 0.00976766 0.00970451 3.96427e-06 0.00973769 1.71551e-07 272.579 
-0.47 -0.51 -0.289986 0.445289 0.00976512 0.00968691 1.2366e-06 0.00971908 1.71297e-07 272.462 
-0.37 -0.55 -0.0620866 0.978896 0.00974598 0.00968521 1.34179e-06 0.00973057 1.71192e-07 272.952 
-0.41 -0.53 -0.347302 0.693842 0.00977354 0.00971255 8.25726e-06 0.00973619 1.71528e-07 272.574 
-0.45 -0.51 -0.296486 0.751212 0.00977491 0.00969036 8.06831e-06 0.00973496 1.71613e-07 272.404 
-0.37 -0.53 0.0309881 1.09579 0.00976794 0.00971447 1.61524e-06 0.0097505 1.71753e-07 272.616 
-0.41 -0.51 -0.496119 0.636098 0.00977426 0.00970734 5.76681e-06 0.00973566 1.71481e-07 272.635 
-0.35 -0.53 -0.254306 1.06425 0.00974522 0.00970107 -1.06452e-05 0.00972263 1.71511e-07 272.221 
-0.39 -0.51 -0.585477 0.963942 0.00977334 0.00968395 2.88419e-06 0.00972483 1.71395e-07 272.467 
-0.37 -0.51 -0.768197 1.13564 0.00978959 0.00971983 8.29879e-06 0.00975567 1.71924e-07 272.49 
-0.35 -0.51 -0.616336 0.921808 0.00977995 0.00969649 9.34954e-06 0.00973766 1.7156e-07 272.564 
-0.49 -0.65 0.00317595 0.174551 0.00978147 0.00971446 1.57504e-05 0.00975105 1.71468e-07 273.085 
-0.47 -0.65 -0.234184 0.356481 0.00977828 0.00972978 9.84296e-06 0.00976113 1.71865e-07 272.737 
-0.45 -0.65 -0.109141 0.432592 0.00976142 0.00973307 -3.53692e-06 0.00975768 1.72085e-07 272.291 
-0.49 -0.63 -0.106352 0.357915 0.0097638 0.00970531 1.51237e-05 0.00975281 1.71983e-07 272.317 
-0.43 -0.65 -0.0198735 0.795576 0.00974396 0.00969216 5.51406e-06 0.00972875 1.71193e-07 272.898 
-0.47 -0.63 -0.0818243 0.517499 0.00977746 0.00973484 3.73738e-06 0.00977084 1.72254e-07 272.39 
-0.41 -0.65 0.100246 0.188351 0.00976839 0.00971581 7.73071e-06 0.0097437 1.7148e-07 272.86 
-0.45 -0.63 -0.425738 0.540033 0.00979066 0.0097346 2.14892e-05 0.00976953 1.72246e-07 272.367 
-0.49 -0.61 -0.104263 0.58175 0.00977118 0.00970084 -1.47701e-05 0.00974757 1.71913e-07 272.282 
-0.39 -0.65 0.164139 0.228331 0.00975849 0.00972546 9.38736e-06 0.00974247 1.71461e-07 272.856 
-0.43 -0.63 -0.363731 0.578371 0.00978169 0.00970604 -3.24468e-07 0.00974882 1.71365e-07 273.186 
-0.47 -0.61 -0.446492 0.467806 0.00977569 0.00973427 1.55979e-06 0.00977087 1.72116e-07 272.611 
-0.37 -0.65 -0.37136 0.252984 0.00975242 0.00968574 -8.45577e-06 0.00971859 1.71017e-07 272.895 
-0.41 -0.63 -0.476431 0.155098 0.00977481 0.00969832 8.7785e-06 0.00973923 1.7129e-07 273.038 
-0.45 -0.61 -0.104593 0.722972 0.00978413 0.00973102 -5.25428e-06 0.00977382 1.71991e-07 272.89 
-0.49 -0.59 -0.0787505 0.577639 0.00975987 0.0096858 -2.02478e-05 0.00973831 1.71393e-07 272.848 
-0.35 -0.65 -0.576451 0.37388 0.00976701 0.00974615 9.24254e-06 0.00974535 1.71471e-07 272.922 
-0.39 -0.63 -0.429378 0.524072 0.00978644 0.00973371 1.36855e-05 0.00974767 1.71499e-07 272.942 
-0.43 -0.61 -0.0622136 0.633966 0.00979856 0.00970693 1.50397e-05 0.00976395 1.71517e-07 273.368 
-0.47 -0.59 -0.0332848 0.609178 0.00977846 0.00973059 -1.40568e-05 0.00976592 1.71807e-07 272.963 
-0.37 -0.63 -0.560011 0.646346 0.00976474 0.00969895 9.32857e-06 0.00973374 1.71355e-07 272.781 
-0.41 -0.61 -0.207372 0.315237 0.00979212 0.00971258 5.95301e-06 0.00974782 1.71228e-07 273.377 
-0.45 -0.59 -0.0906284 0.28451 0.00978539 0.00972359 -1.69148e-06 0.00976716 1.71741e-07 273.101 
-0.49 -0.57 0.0332852 0.521025 0.0097849 0.0096976 -1.96233e-05 0.0097384 1.71418e-07 272.811 
-0.35 -0.63 -0.693361 0.237498 0.00974822 0.00971979 3.23789e-06 0.00972388 1.71256e-07 272.662 
-0.39 -0.61 -0.188746 0.297226 0.0097965 0.00970912 8.99705e-06 0.00974864 1.71445e-07 273.055 
-0.43 -0.59 0.347934 0.600069 0.00977968 0.00970155 4.22018e-06 0.00974415 1.71631e-07 272.633 
-0.47 -0.57 -0.0789498 0.727628 0.00977376 0.00971808 -8.96543e-06 0.00974296 1.71462e-07 272.869 
-0.37 -0.61 -0.232144 0.661395 0.00980073 0.00971641 2.09029e-05 0.0097607 1.71368e-07 273.516 
-0.41 -0.59 0.501597 0.414984 0.00978278 0.00971454 3.6269e-06 0.00975197 1.71249e-07 273.46 
-0.45 -0.57 0.142282 0.156026 0.00975906 0.00970267 -1.67838e-06 0.00973661 1.71606e-07 272.462 
-0.49 -0.55 -0.0674901 0.567341 0.00977153 0.00970575 -1.1225e-05 0.00974062 1.71605e-07 272.576 
-0.35 -0.61 -0.238247 0.519955 0.00979266 0.00971471 1.22601e-05 0.00974845 1.71357e-07 273.19 
-0.39 -0.59 0.178408 0.740949 0.00978112 0.00967256 9.996e-06 0.00973365 1.71165e-07 273.08 
-0.43 -0.57 0.217413 0.353984 0.00976465 0.00969723 2.5989e-06 0.00974086 1.71252e-07 273.144 
-0.47 -0.55 0.219668 0.727861 0.00976895 0.00968792 -1.30167e-05 0.0097227 1.71574e-07 272.124 
-0.33 -0.61 -0.652256 0.516347 0.00978236 0.00969636 2.41816e-05 0.00974748 1.71451e-07 273.012 
-0.37 -0.59 -0.0818208 0.482253 0.00978119 0.00974119 1.99013e-05 0.00976088 1.71609e-07 273.136 
-0.41 -0.57 -0.0897105 0.792718 0.00977395 0.00972294 1.8697e-05 0.00974953 1.71536e-07 272.935 
-0.45 -0.55 -0.0488555 0.0184552 0.00976526 0.0097048 -1.76624e-06 0.00972029 1.71472e-07 272.217 
-0.49 -0.53 0.203703 0.529994 0.00977779 0.00970467 5.18512e-06 0.00973764 1.71444e-07 272.748 
-0.35 -0.59 -0.502326 0.824867 0.00978646 0.00969866 1.78418e-05 0.00973845 1.71552e-07 272.598 
-0.39 -0.57 -0.229712 0.905496 0.00976196 0.00968239 -3.85185e-06 0.00973008 1.71158e-07 272.992 
-0.43 -0.55 -0.0582794 0.307506 0.00975854 0.00970198 1.25649e-05 0.00974129 1.717e-07 272.443 
-0.47 -0.53 0.2788 0.423675 0.0097681 0.00968562 4.10984e-06 0.00971894 1.71315e-07 272.429 
-0.29 -0.57 -0.355246 0.50685 0.00976612 0.00968997 2.38634e-05 0.00973469 1.71332e-07 272.843 
-0.33 -0.55 -0.508629 0.905823 0.00980103 0.00972676 4.99273e-06 0.00975618 1.71557e-07 273.088 
-0.29 -0.61 -0.462679 0.633042 0.00976518 0.00970804 -1.70841e-06 0.00973746 1.71468e-07 272.705 
-0.33 -0.59 -0.397072 0.974833 0.00978759 0.00970671 2.14272e-05 0.00975513 1.7153e-07 273.101 
-0.27 -0.61 -0.603629 0.653266 0.00978079 0.00969251 1.66353e-05 0.0097462 1.71583e-07 272.766 
-0.31 -0.59 -0.785383 0.760939 0.00979246 0.00974723 1.13348e-05 0.00976883 1.7181e-07 273.038 
-0.29 -0.59 -0.517636 0.242584 0.00979599 0.00969445 1.57819e-05 0.00974289 1.71304e-07 273.118 
-0.33 -0.57 -0.19036 0.792743 0.00977011 0.00972253 3.45051e-07 0.00973795 1.71439e-07 272.765 
-0.27 -0.59 -0.371267 0.835538 0.00977886 0.00968764 2.51022e-05 0.00973224 1.7118e-07 273.018 
-0.31 -0.57 -0.148638 0.715935 0.00977761 0.00972701 8.83755e-06 0.00975484 1.71696e-07 272.828 
-0.27 -0.57 -0.545157 0.694281 0.00976408 0.00968732 2.88003e-05 0.00974422 1.7145e-07 272.923 
-0.31 -0.55 -0.00396934 0.897195 0.00978851 0.00970033 2.25622e-05 0.00974675 1.71269e-07 273.282 
-0.29 -0.55 -0.247313 0.699782 0.00977514 0.00969639 3.22675e-05 0.00973156 1.71103e-07 273.12 
-0.33 -0.53 -0.161371 1.14264 0.00974791 0.00971101 1.12002e-05 0.00971963 1.71068e-07 272.842 
-0.27 -0.55 -0.325968 0.598008 0.00975942 0.00967745 2.47193e-05 0.0097212 1.71408e-07 272.344 
-0.31 -0.53 -0.329304 0.649076 0.00975551 0.00968922 2.54266e-05 0.00972961 1.71058e-07 273.139 
-0.29 -0.53 -0.251492 0.887986 0.00978754 0.00969005 3.75657e-05 0.00974392 1.71289e-07 273.171 
-0.33 -0.51 -0.397929 0.837432 0.00977314 0.00969748 1.2229e-05 0.00973746 1.71368e-07 272.864 
-0.27 -0.53 -0.345866 0.666902 0.00978485 0.0096881 3.1793e-05 0.0097399 1.71265e-07 273.096 
-0.31 -0.51 -0.122961 0.753652 0.00976192 0.00968194 7.1011e-06 0.00971858 1.71111e-07 272.744 
-0.29 -0.51 -0.0922269 0.711004 0.00975705 0.00967793 1.88546e-05 0.00972419 1.71046e-07 273.005 
-0.27 -0.51 -0.0485395 1.02152 0.00978461 0.00969468 3.66983e-05 0.00974791 1.71201e-07 273.424 
-0.33 -0.65 -0.666532 0.5566 0.00976829 0.00970993 1.52364e-05 0.00974509 1.71264e-07 273.244 
-0.31 -0.65 -0.527428 0.751758 0.00976752 0.00970469 1.09372e-05 0.0097453 1.71514e-07 272.852 
-0.29 -0.65 -0.489091 0.649884 0.00974745 0.00970355 1.83879e-05 0.00973527 1.71424e-07 272.714 
-0.33 -0.63 -0.363769 0.701583 0.00974696 0.00972592 2.20723e-05 0.0097355 1.71382e-07 272.787 
-0.27 -0.65 -0.640275 0.462076 0.00977154 0.00971788 1.19236e-05 0.00975469 1.71624e-07 272.939 
-0.31 -0.63 -0.602115 0.557751 0.00972271 0.00968881 9.43716e-06 0.00971761 1.70916e-07 273.027 
-0.25 -0.65 -0.697977 0.346593 0.00976322 0.00969582 1.1686e-05 0.00973772 1.71712e-07 272.325 
-0.29 -0.63 -0.863634 0.472954 0.00975713 0.00972268 3.0323e-06 0.00973319 1.71387e-07 272.714 
-0.27 -0.63 -0.732359 0.595495 0.009737 0.00970717 8.39123e-06 0.00973555 1.71623e-07 272.405 
-0.31 -0.61 -0.709268 0.747173 0.00978845 0.00973573 2.00166e-05 0.00976183 1.71593e-07 273.189 
-0.49 -0.67 0.218669 0.377053 0.00976367 0.0097128 6.22711e-07 0.00974156 1.71257e-07 273.156 
-0.47 -0.67 0.190471 -0.290581 0.0097572 0.0097237 1.57517e-06 0.00974518 1.71529e-07 272.824 
-0.45 -0.67 0.177681 0.935149 0.00976422 0.00972976 2.95934e-06 0.00975645 1.71781e-07 272.739 