ITEM: TIMESTEP
831000
ITEM: NUMBER OF CELLS
5000
ITEM: BOX BOUNDS ss ss pp
-0.5 0.5
-1 1
-0.5 0.5
ITEM: CELLS xc yc f_U[*] f_V[*] f_Tau[1] f_Tau[2] f_Tau[3] f_Press[*] f_Mrho[*] f_Ttra[*] 
-0.49 -0.99 -0.224 0.204419 0.00978111 0.00973732 1.86327e-05 0.00977038 1.71834e-07 273.043 
-0.47 -0.99 -0.119326 -0.207904 0.00976421 0.00972143 -1.12911e-06 0.00974793 1.71478e-07 272.982 
-0.45 -0.99 -0.298388 0.0859539 0.00974866 0.00974127 1.12052e-05 0.00974827 1.71426e-07 273.075 
-0.49 -0.97 0.0766004 0.215083 0.00971614 0.00973153 2.98732e-05 0.00972176 1.71103e-07 272.846 
-0.43 -0.99 -0.435004 0.117841 0.00972575 0.00972711 1.05728e-05 0.00974982 1.71358e-07 273.226 
-0.47 -0.97 -0.188392 0.0540939 0.00969883 0.009724 2.58299e-05 0.0097254 1.71287e-07 272.655 
-0.41 -0.99 -0.357606 -0.0448004 0.00970374 0.00971482 2.13484e-06 0.00972587 1.71062e-07 273.027 
-0.45 -0.97 0.0752113 0.0853165 0.00970918 0.00974505 6.81968e-06 0.00973417 1.71451e-07 272.64 
-0.49 -0.95 0.270683 -0.0334249 0.00971283 0.00972251 3.82519e-06 0.00972639 1.71213e-07 272.8 
-0.39 -0.99 -0.187721 -0.39488 0.00970821 0.00973285 -1.60539e-05 0.00971929 1.70597e-07 273.586 
-0.43 -0.97 -0.0847207 0.225331 0.00972938 0.00972295 4.73398e-06 0.0097315 1.71087e-07 273.145 
-0.47 -0.95 0.383622 0.286286 0.00974011 0.00973619 1.10555e-05 0.00973688 1.71737e-07 272.262 
-0.37 -0.99 0.0182182 0.204175 0.00971667 0.00971598 1.44523e-05 0.00972123 1.70941e-07 273.09 
-0.41 -0.97 -0.267941 -0.0520342 0.00973374 0.009733 -2.90972e-06 0.00974101 1.70972e-07 273.596 
-0.45 -0.95 0.285261 -0.214061 0.00976087 0.00975814 1.58982e-05 0.0097663 1.71966e-07 272.72 
-0.49 -0.93 0.173856 -0.279941 0.00974507 0.00971186 8.61363e-06 0.0097371 1.71386e-07 272.825 
-0.35 -0.99 -0.0272512 -0.0709583 0.00969798 0.00965921 5.03083e-06 0.00967518 1.70559e-07 272.405 
-0.39 -0.97 0.0086626 -0.320754 0.00971144 0.00971983 1.28833e-05 0.00972029 1.71147e-07 272.735 
-0.43 -0.95 0.408682 0.426223 0.00975393 0.00971975 3.77521e-06 0.00973431 1.71258e-07 272.951 
-0.47 -0.93 0.30081 0.15437 0.00976483 0.00975444 4.54555e-07 0.00976355 1.71741e-07 273 
-0.33 -0.99 0.0225082 0.145212 0.00970364 0.00971175 1.32262e-05 0.00970705 1.70825e-07 272.877 
-0.37 -0.97 -0.156678 -0.0982121 0.00969445 0.00970841 2.1714e-05 0.00969844 1.7071e-07 272.817 
-0.41 -0.95 0.0903977 -0.21222 0.00975287 0.00972363 6.57893e-06 0.00973823 1.71422e-07 272.8 
-0.45 -0.93 0.45661 0.0460187 0.00975242 0.00974707 -1.17206e-05 0.00973702 1.71488e-07 272.661 
-0.49 -0.91 0.0172928 -0.395087 0.00978423 0.00973867 5.2434e-06 0.0097656 1.71244e-07 273.85 
-0.35 -0.97 0.00875316 -0.20649 0.00970143 0.00967943 4.8628e-06 0.0096904 1.70373e-07 273.131 
-0.39 -0.95 0.111677 -0.546468 0.00975003 0.00972427 1.64723e-05 0.00972494 1.71185e-07 272.805 
-0.43 -0.93 0.470917 0.147905 0.00975564 0.00971249 4.90172e-06 0.00971624 1.70883e-07 273.042 
-0.47 -0.91 -0.234755 0.111154 0.00977218 0.00974486 -3.30305e-06 0.00975284 1.71758e-07 272.674 
-0.33 -0.97 0.00695678 -0.15828 0.00971456 0.00969732 3.23144e-06 0.00970921 1.71151e-07 272.417 
-0.37 -0.95 -0.0383362 0.253221 0.00976324 0.00970647 2.75047e-05 0.00973762 1.71257e-07 273.046 
-0.41 -0.93 0.311019 0.117495 0.00975446 0.00973608 3.24376e-05 0.00973387 1.71186e-07 273.054 
-0.45 -0.91 -0.115702 -0.0815035 0.00977875 0.00974652 1.05319e-05 0.00973778 1.71422e-07 272.787 
-0.49 -0.89 -0.144721 -0.0570523 0.00981189 0.00975341 7.98817e-06 0.00977039 1.71555e-07 273.489 
-0.35 -0.95 -0.106072 -0.247232 0.00975349 0.00969821 5.85177e-06 0.00973171 1.71585e-07 272.358 
-0.39 -0.93 -0.133776 0.0353522 0.00973902 0.00970307 1.14529e-05 0.00971075 1.70997e-07 272.706 
-0.43 -0.91 -0.138036 0.172866 0.00975027 0.00970626 1.34747e-05 0.00971895 1.70788e-07 273.27 
-0.47 -0.89 -0.0470997 0.146885 0.00979361 0.00975293 8.49685e-06 0.00976125 1.7193e-07 272.636 
-0.37 -0.93 -0.212999 0.0789116 0.00975429 0.00970482 1.10987e-06 0.00973165 1.71256e-07 272.88 
-0.41 -0.91 -0.387315 0.61095 0.00976764 0.00972219 9.97853e-06 0.00973809 1.71552e-07 272.59 
-0.45 -0.89 -0.30496 -0.0568218 0.00977543 0.00971774 4.61212e-06 0.00973652 1.71213e-07 273.085 
-0.49 -0.87 0.0342763 -0.144301 0.00973843 0.00972837 -4.13287e-07 0.00972353 1.71339e-07 272.519 
-0.35 -0.93 -0.565267 0.257237 0.00976423 0.00971199 1.65402e-05 0.00972476 1.71305e-07 272.608 
-0.39 -0.91 -0.42017 -0.0440774 0.00978535 0.00972693 1.70741e-05 0.00975424 1.71509e-07 273.109 
-0.43 -0.89 -0.473273 0.44397 0.00979476 0.00971792 2.06955e-05 0.00976662 1.71488e-07 273.49 
-0.47 -0.87 0.0867794 0.431241 0.00974071 0.00975086 1.10766e-05 0.0097402 1.71505e-07 272.723 
-0.37 -0.91 -0.203628 0.0281213 0.00975582 0.00970797 1.28163e-05 0.00973432 1.71519e-07 272.535 
-0.41 -0.89 -0.40497 0.622088 0.00978835 0.0097052 5.58249e-06 0.00975535 1.71825e-07 272.638 
-0.45 -0.87 -0.355109 0.179214 0.00976471 0.0097062 8.47148e-06 0.0097539 1.71643e-07 272.887 
-0.49 -0.85 -0.0382824 -0.204967 0.00976791 0.00971924 -7.86875e-06 0.00973851 1.71608e-07 272.512 
-0.35 -0.91 -0.24911 0.468561 0.00975043 0.00970626 -1.07519e-06 0.00971862 1.71131e-07 272.713 
-0.39 -0.89 -0.443437 0.0369612 0.00977755 0.00972427 2.76047e-05 0.00976277 1.71674e-07 273.086 
-0.43 -0.87 -0.319855 0.427816 0.00975966 0.00973328 1.94684e-05 0.00976242 1.71829e-07 272.83 
-0.47 -0.85 -0.00569822 0.391635 0.0097948 0.00974947 1.27095e-05 0.00977706 1.71889e-07 273.144 
-0.33 -0.91 -0.599431 0.236525 0.0097662 0.00970611 4.92324e-06 0.0097223 1.71326e-07 272.506 
-0.37 -0.89 -0.479485 -0.370667 0.00977747 0.0097269 2.39214e-05 0.00975904 1.71571e-07 273.145 
-0.41 -0.87 -0.313735 0.778181 0.00975938 0.00971748 1.70031e-05 0.0097524 1.71646e-07 272.84 
-0.45 -0.85 -0.119309 0.388038 0.0097859 0.00971331 1.60475e-05 0.00975278 1.71476e-07 273.121 
-0.35 -0.89 -0.480252 0.695137 0.00977902 0.00971064 2.87614e-06 0.00973388 1.71528e-07 272.51 
-0.39 -0.87 -0.467442 -0.257678 0.0097756 0.00970932 3.58149e-06 0.00973822 1.71652e-07 272.434 
-0.43 -0.85 -0.218992 0.585501 0.00979212 0.00972102 1.14833e-06 0.00974108 1.71604e-07 272.591 
-0.37 -0.87 -0.412087 -0.0743752 0.00978564 0.00973924 5.34025e-06 0.00976297 1.71927e-07 272.689 
-0.41 -0.85 -0.320048 1.04764 0.00979435 0.00972492 1.37776e-05 0.00975158 1.71852e-07 272.49 
-0.35 -0.87 -0.0863475 0.354912 0.00979205 0.00971674 1.6302e-05 0.00975825 1.71659e-07 272.984 
-0.39 -0.85 -0.539727 0.269638 0.00977179 0.00972482 6.53594e-06 0.00973752 1.71686e-07 272.36 
-0.33 -0.87 -0.035893 0.31831 0.0097767 0.00969839 1.25288e-05 0.00973803 1.71324e-07 272.95 
-0.37 -0.85 -1.0345 -0.687961 0.00977966 0.00971924 1.80556e-05 0.00976578 1.7199e-07 272.668 
-0.35 -0.85 -0.64483 0.0431989 0.00977177 0.0097217 2.19696e-05 0.00975598 1.71635e-07 272.958 
-0.33 -0.85 -0.741032 0.693934 0.00976322 0.00970131 2.43369e-05 0.00973632 1.71446e-07 272.708 
-0.31 -0.99 -0.0752812 0.0682379 0.00970906 0.00967477 4.40994e-06 0.00969193 1.70898e-07 272.336 
-0.29 -0.99 -0.509325 0.306405 0.00971366 0.00969647 -6.86355e-06 0.00969984 1.7103e-07 272.347 
-0.27 -0.99 -0.310897 -0.471946 0.00975443 0.00973678 2.64102e-06 0.00974267 1.71499e-07 272.802 
-0.31 -0.97 -0.336249 0.436997 0.0097371 0.00970431 -7.37791e-06 0.00972899 1.71594e-07 272.267 
-0.29 -0.97 -0.163476 0.209507 0.00974336 0.00970346 3.47951e-06 0.00973439 1.71416e-07 272.702 
-0.33 -0.95 -0.241041 0.0812183 0.00974693 0.00969548 -5.28463e-06 0.00972018 1.71188e-07 272.666 
-0.27 -0.97 0.281691 -0.514554 0.00971824 0.00970545 2.12893e-07 0.00971861 1.71576e-07 272.006 
-0.31 -0.95 -0.140012 0.599848 0.00973801 0.0097009 -3.54039e-07 0.00971532 1.71531e-07 271.985 
-0.29 -0.95 0.036237 -0.405244 0.00973652 0.00969395 3.17809e-06 0.00972033 1.71741e-07 271.793 
-0.33 -0.93 -0.466652 0.0965514 0.00976306 0.0096989 2.43953e-06 0.00972693 1.71403e-07 272.513 
-0.27 -0.95 -0.420118 -0.2221 0.00974403 0.0097336 2.3275e-06 0.00973568 1.71652e-07 272.362 
-0.31 -0.93 -0.522621 0.203118 0.00975271 0.00970307 8.40616e-07 0.00972121 1.71419e-07 272.328 
-0.29 -0.93 -0.713171 0.010988 0.00975361 0.00969282 1.31562e-06 0.00972926 1.71949e-07 271.712 
-0.27 -0.93 -0.256221 -0.338721 0.00978311 0.00974055 -9.78264e-06 0.00977302 1.72171e-07 272.584 
-0.31 -0.91 -0.357299 0.280898 0.0097685 0.00969675 1.89092e-05 0.00973548 1.71596e-07 272.446 
-0.29 -0.91 -0.156714 -0.329557 0.0097487 0.00970945 -1.51842e-05 0.00972088 1.71457e-07 272.259 
-0.33 -0.89 -0.468701 0.0156649 0.00977078 0.0097016 -1.37992e-06 0.00973648 1.71278e-07 272.98 
-0.27 -0.91 -0.712121 -0.190961 0.00973836 0.00971703 -1.30424e-05 0.00972871 1.71544e-07 272.339 
-0.31 -0.89 -0.308582 -0.0663811 0.00977948 0.00968298 1.02256e-06 0.00973502 1.71519e-07 272.555 
-0.29 -0.89 -0.195584 -0.17831 0.00979401 0.00974399 -1.56848e-06 0.00976281 1.7154e-07 273.3 
-0.27 -0.89 -0.427057 0.171669 0.00977519 0.00970268 -7.8615e-06 0.00974595 1.71735e-07 272.517 
-0.31 -0.87 -0.372033 -0.185442 0.00974839 0.00969709 -4.32562e-06 0.0097236 1.7126e-07 272.648 
-0.29 -0.87 -0.686151 -0.172935 0.00973941 0.00973768 1.09888e-06 0.0097427 1.71532e-07 272.75 
-0.27 -0.87 -0.562017 0.520052 0.00974483 0.00970841 9.35979e-07 0.00972619 1.71301e-07 272.655 
-0.31 -0.85 -0.542268 -0.150547 0.00977112 0.00971208 8.68503e-06 0.00974169 1.71818e-07 272.268 
-0.29 -0.85 -0.574902 0.207332 0.00976137 0.00972853 9.25478e-06 0.00975144 1.718e-07 272.569 
-0.27 -0.85 -0.629344 0.423543 0.00974602 0.00970768 2.95444e-06 0.00973801 1.709e-07 273.627 
-0.25 -0.99 -0.190925 0.0231324 0.00976163 0.00976463 1.6487e-05 0.00976638 1.72039e-07 272.607 
-0.25 -0.97 -0.169451 0.121275 0.00974371 0.00976415 -4.20864e-06 0.00975102 1.71499e-07 273.035 
-0.25 -0.95 -0.384831 0.334581 0.00973204 0.00974253 -7.40054e-06 0.00974444 1.71602e-07 272.687 
-0.25 -0.93 -0.48355 0.181593 0.00976852 0.00972636 2.13757e-06 0.00973836 1.71575e-07 272.56 
-0.25 -0.91 -0.249537 0.138654 0.0097449 0.00971744 2.72652e-06 0.00973189 1.71416e-07 272.631 
-0.25 -0.89 -0.780235 0.0409337 0.00977779 0.00971284 7.81483e-07 0.00974716 1.71472e-07 272.971 
-0.25 -0.87 -1.12897 0.117262 0.00972911 0.00969672 6.10123e-06 0.00971627 1.70885e-07 273.04 
-0.25 -0.85 -0.206753 0.406023 0.00975927 0.00970019 -7.96059e-06 0.00974188 1.71174e-07 273.297 
-0.25 -0.83 -0.176727 0.0813139 0.00976422 0.00969424 -2.49433e-06 0.00974604 1.71167e-07 273.425 
-0.33 -0.81 0.32206 0.207006 0.00979303 0.00970631 1.04877e-05 0.0097405 1.71571e-07 272.626 
-0.31 -0.81 0.0630085 0.170104 0.00980044 0.00972356 9.84166e-06 0.00976011 1.71334e-07 273.553 
-0.29 -0.81 -0.0171014 -0.291536 0.00979102 0.00972809 -5.58328e-06 0.00976446 1.71633e-07 273.198 
-0.27 -0.81 0.129028 0.444481 0.00979436 0.00972729 1.39323e-05 0.00976822 1.71583e-07 273.383 
-0.31 -0.79 0.34425 0.428489 0.00977802 0.00973612 3.73869e-06 0.00974395 1.71571e-07 272.722 
-0.29 -0.79 -0.0918713 0.0124065 0.00977891 0.00971804 9.87673e-07 0.00972743 1.71438e-07 272.472 
-0.33 -0.77 -0.0412546 0.120331 0.00975732 0.00972639 1.60104e-05 0.00973225 1.71375e-07 272.707 
-0.27 -0.79 -0.573243 0.38393 0.00975759 0.00968533 8.48306e-06 0.0097199 1.70982e-07 272.987 
-0.31 -0.77 0.0743138 0.426456 0.00974767 0.00971951 -1.10762e-06 0.00972951 1.71527e-07 272.389 
-0.29 -0.77 -0.119376 0.828999 0.00976476 0.00971212 1.65551e-05 0.0097362 1.71656e-07 272.37 
-0.27 -0.77 -0.48973 0.612749 0.00977484 0.00969292 1.44292e-05 0.00974425 1.71569e-07 272.734 
-0.31 -0.75 -0.0623401 0.857921 0.00975514 0.0097218 -3.32097e-06 0.00975378 1.71949e-07 272.397 
-0.29 -0.75 -0.670639 1.12623 0.00975208 0.00971382 1.43849e-05 0.0097297 1.71435e-07 272.54 
-0.27 -0.75 -0.813977 0.785705 0.00976126 0.00968672 1.27756e-05 0.00972172 1.71326e-07 272.49 
-0.49 -0.83 -0.177755 0.0018457 0.00976374 0.0097247 -2.73156e-06 0.0097579 1.71709e-07 272.894 
-0.47 -0.83 -0.0146374 0.386467 0.00976046 0.00972348 -1.19726e-05 0.00975021 1.71581e-07 272.882 
-0.45 -0.83 0.292582 0.257606 0.00976375 0.0097269 5.01746e-06 0.00975863 1.71431e-07 273.357 
-0.49 -0.81 0.0430726 -0.149972 0.00977299 0.00973335 -2.99938e-06 0.00977112 1.7174e-07 273.214 
-0.43 -0.83 -0.0212378 0.843679 0.0097431 0.00969185 1.19795e-05 0.00971486 1.71122e-07 272.622 
-0.47 -0.81 -0.00558941 0.194204 0.00975737 0.00971937 -2.61519e-06 0.00976391 1.71694e-07 273.086 
-0.45 -0.81 0.0974881 0.530141 0.00977163 0.00971031 1.29784e-05 0.00974712 1.71711e-07 272.589 
-0.49 -0.79 -0.283517 0.208488 0.00974915 0.00972345 3.26743e-06 0.00974077 1.71673e-07 272.471 
-0.43 -0.81 -0.160239 0.865684 0.00980217 0.00970861 7.10277e-06 0.00974934 1.71517e-07 272.96 
-0.47 -0.79 -0.170217 0.00730108 0.00975549 0.00972115 -3.16682e-06 0.00973705 1.71581e-07 272.514 
-0.41 -0.81 -0.319609 1.10525 0.00976553 0.00969664 1.87557e-05 0.00973406 1.71556e-07 272.47 
-0.45 -0.79 -0.647641 0.69479 0.00973364 0.00970847 -3.36382e-06 0.00971493 1.71452e-07 272.1 
-0.49 -0.77 0.140204 0.0837213 0.00973969 0.00973359 5.03117e-06 0.00972965 1.71206e-07 272.903 
-0.39 -0.81 -0.128223 0.386383 0.00975797 0.00971014 1.92209e-05 0.00975265 1.71884e-07 272.469 
-0.43 -0.79 -0.579538 0.933636 0.00974726 0.00969996 6.16589e-06 0.00972352 1.71384e-07 272.448 
-0.47 -0.77 -0.321274 0.48677 0.00973525 0.00970775 3.36311e-06 0.00970831 1.71035e-07 272.576 
-0.37 -0.81 0.497135 -0.248948 0.00977145 0.00973031 7.4847e-06 0.00974389 1.71761e-07 272.42 
-0.41 -0.79 -0.338148 0.623828 0.00977897 0.00969798 1.05337e-05 0.00974338 1.71885e-07 272.209 
-0.45 -0.77 -0.838995 1.41896 0.00976205 0.0097316 -3.46822e-06 0.00974252 1.7182e-07 272.287 
-0.35 -0.81 0.354917 0.287969 0.00978172 0.00972444 5.26218e-07 0.00976118 1.71821e-07 272.807 
-0.39 -0.79 0.106691 -0.055914 0.00978075 0.00970876 1.25529e-06 0.00974323 1.71774e-07 272.38 
-0.43 -0.77 -0.904921 0.394926 0.00973305 0.00968192 -8.10112e-06 0.00970232 1.71218e-07 272.118 
-0.37 -0.79 -0.135354 -0.178348 0.00980276 0.00974645 1.35627e-05 0.00976087 1.72006e-07 272.506 
-0.41 -0.77 -0.426977 0.177538 0.00972452 0.00969394 7.77679e-06 0.00971183 1.71399e-07 272.096 
-0.35 -0.79 0.0687551 0.503384 0.00978044 0.00971416 9.18356e-06 0.00974576 1.71752e-07 272.486 
-0.39 -0.77 -0.264249 -0.153843 0.00974396 0.00972817 1.4459e-06 0.00975087 1.71715e-07 272.688 
-0.43 -0.75 0.127088 0.526567 0.00974998 0.00968681 9.78547e-06 0.00972426 1.71265e-07 272.658 
-0.33 -0.79 0.214095 0.165583 0.00976468 0.00970666 4.5494e-06 0.00972665 1.71482e-07 272.38 
-0.37 -0.77 0.311011 -0.110931 0.00973786 0.00971779 -1.40962e-06 0.00972406 1.71248e-07 272.68 
-0.41 -0.75 -0.108026 0.245928 0.00975883 0.00971496 4.5644e-07 0.00973419 1.71416e-07 272.695 
-0.35 -0.77 0.25339 0.423699 0.00975247 0.0097149 6.21308e-06 0.00973195 1.70885e-07 273.48 
-0.39 -0.75 -0.0886158 -0.130678 0.0097511 0.00970086 -5.33328e-06 0.00974029 1.71553e-07 272.649 
-0.49 -0.75 -0.128522 0.313622 0.00972805 0.00973367 1.92108e-06 0.00973576 1.70821e-07 273.69 
-0.47 -0.75 -0.272768 0.840926 0.00974535 0.00972773 -9.75487e-06 0.0097227 1.71104e-07 272.871 
-0.45 -0.75 0.0119319 1.10008 0.00973987 0.00969465 -5.20218e-06 0.00970969 1.71177e-07 272.389 
-0.49 -0.73 -0.119912 0.478532 0.00976454 0.00972341 1.88551e-07 0.00975227 1.71073e-07 273.751 
-0.47 -0.73 -0.375953 1.09613 0.00976626 0.00975039 -3.20763e-06 0.00976447 1.71366e-07 273.625 
-0.45 -0.73 -0.180482 0.397674 0.00977346 0.00969004 -1.58004e-05 0.00972832 1.71467e-07 272.45 
-0.49 -0.71 -0.227345 0.560452 0.00982442 0.00975273 7.83081e-06 0.00979705 1.71962e-07 273.586 
-0.43 -0.73 0.397355 0.505899 0.00977119 0.00969526 -8.35278e-06 0.00973623 1.71367e-07 272.831 
-0.47 -0.71 -0.00770455 0.622824 0.00981365 0.00974639 -7.65601e-06 0.00977411 1.71628e-07 273.476 
-0.37 -0.75 -0.380044 -0.433755 0.00974224 0.00973028 1.36187e-05 0.00971691 1.71501e-07 272.076 
-0.41 -0.73 0.376147 0.375668 0.00977309 0.00969734 -9.6005e-06 0.00973422 1.71247e-07 272.966 
-0.45 -0.71 0.378304 0.228323 0.00978515 0.00969253 -6.43185e-07 0.00974261 1.71634e-07 272.586 
-0.49 -0.69 -0.0506126 0.628139 0.00976009 0.00972502 -1.0972e-05 0.00974759 1.71267e-07 273.309 
-0.35 -0.75 -0.0908251 0.106305 0.00975172 0.00972713 1.13419e-05 0.00973643 1.71352e-07 272.861 
-0.39 -0.73 0.388607 -0.33267 0.00977812 0.00969695 1.09977e-05 0.00973525 1.71219e-07 273.039 
-0.43 -0.71 -0.0297313 0.103423 0.00977415 0.00970178 -6.06575e-06 0.00973463 1.71655e-07 272.329 
-0.47 -0.69 0.249775 0.0734798 0.00976632 0.0097317 1.67644e-05 0.0097525 1.7143e-07 273.187 
-0.37 -0.73 0.366802 -0.14003 0.00978627 0.00972459 4.86136e-06 0.00974046 1.71704e-07 272.414 
-0.41 -0.71 0.597311 0.664544 0.00977948 0.00967907 -8.54761e-06 0.00974317 1.71776e-07 272.376 
-0.45 -0.69 0.163172 0.479822 0.00978502 0.00970833 6.74581e-06 0.00975472 1.7182e-07 272.629 
-0.35 -0.73 -0.173133 0.165136 0.00977793 0.00972515 8.25977e-06 0.00975837 1.71739e-07 272.859 
-0.39 -0.71 0.158479 0.00966564 0.00978723 0.00971527 -5.41487e-07 0.00974989 1.7172e-07 272.653 
-0.43 -0.69 0.134318 0.323826 0.00980088 0.00971806 2.62005e-06 0.00976236 1.72359e-07 271.989 
-0.33 -0.73 -0.183749 -0.0489652 0.00978018 0.00973104 1.18123e-05 0.00977119 1.72148e-07 272.569 
-0.37 -0.71 -0.133685 -0.164906 0.00976855 0.00971247 6.20167e-06 0.00974024 1.71556e-07 272.643 
-0.41 -0.69 0.118154 0.00122104 0.00977509 0.00967991 -6.00102e-07 0.00972848 1.71614e-07 272.222 
-0.35 -0.71 -0.49935 0.341456 0.00976 0.00972133 7.79506e-06 0.00975259 1.71718e-07 272.732 
-0.39 -0.69 0.13448 0.285929 0.00975398 0.00969678 1.00083e-05 0.00972698 1.71677e-07 272.079 
-0.37 -0.69 -0.0528621 0.167086 0.00977013 0.00970639 8.34798e-06 0.00974918 1.71637e-07 272.764 
-0.35 -0.69 0.261683 0.373281 0.00977433 0.00971898 1.47027e-05 0.00973774 1.71368e-07 272.872 
-0.35 -0.67 -0.148772 0.174685 0.00978245 0.00974667 1.92342e-06 0.0097532 1.71387e-07 273.275 
-0.33 -0.67 -0.102985 0.488168 0.00975609 0.0097214 5.60391e-07 0.00975157 1.7155e-07 272.97 
-0.33 -0.75 0.418531 0.27768 0.00975193 0.00971641 8.32616e-07 0.00974326 1.71905e-07 272.175 
-0.31 -0.73 -0.332886 1.23208 0.00978606 0.00972861 -7.3113e-06 0.00975198 1.71873e-07 272.469 
-0.29 -0.73 0.113035 1.12184 0.00976618 0.00969708 7.50315e-06 0.00973679 1.71348e-07 272.877 
-0.33 -0.71 -0.711387 -0.172103 0.00976576 0.00973913 3.45547e-06 0.00974899 1.71635e-07 272.763 
-0.27 -0.73 -0.0488881 1.08765 0.00975298 0.00969732 2.53025e-05 0.00973689 1.71146e-07 273.202 
-0.31 -0.71 -0.237616 0.761494 0.00975716 0.00973074 1.98882e-05 0.00976159 1.72059e-07 272.442 
-0.29 -0.71 -0.11674 0.878639 0.00974779 0.0096729 1.64859e-05 0.00972679 1.71399e-07 272.516 
-0.33 -0.69 -0.148959 -0.00501767 0.00977993 0.0097325 -1.43634e-05 0.00976687 1.71845e-07 272.929 
-0.27 -0.71 0.474491 1.11405 0.00978408 0.00970039 3.20641e-06 0.00974658 1.71493e-07 272.92 
-0.31 -0.69 -0.486237 0.52092 0.00978061 0.00971635 1.83266e-05 0.00975353 1.71854e-07 272.541 
-0.29 -0.69 -0.300193 0.675165 0.00977337 0.00970279 1.37893e-05 0.00974979 1.71728e-07 272.637 
-0.27 -0.69 -0.237538 1.08887 0.00974675 0.00968907 8.69598e-06 0.00972829 1.71014e-07 273.171 
-0.31 -0.67 -0.212112 0.794119 0.00975786 0.0096884 4.14074e-06 0.00972572 1.71292e-07 272.655 
-0.29 -0.67 -0.523731 0.69268 0.00977373 0.00971805 2.21123e-05 0.00975866 1.7164e-07 273.025 
-0.41 -0.83 -0.0311933 0.836364 0.00976523 0.00972595 5.34361e-06 0.00974188 1.71729e-07 272.414 
-0.39 -0.83 -0.112507 0.870657 0.00977024 0.00972121 3.21136e-05 0.00974167 1.71696e-07 272.461 
-0.37 -0.83 -0.284932 0.0239598 0.00974545 0.00971711 1.92803e-05 0.00974296 1.7168e-07 272.522 
-0.35 -0.83 -0.421826 -0.0952472 0.00976177 0.00971833 2.15342e-05 0.00973841 1.715e-07 272.681 
-0.33 -0.83 -0.372843 0.527658 0.00977731 0.00970952 5.7049e-06 0.00974385 1.71304e-07 273.145 
-0.31 -0.83 0.0505776 -0.362377 0.00977453 0.00969954 1.26215e-05 0.00975197 1.71513e-07 273.039 
-0.29 -0.83 -0.0580649 -0.0519751 0.00978231 0.0097418 8.43297e-06 0.0097784 1.71751e-07 273.4 
-0.27 -0.83 -0.14097 0.427196 0.00978492 0.00972313 1.02797e-05 0.00976403 1.71532e-07 273.348 
-0.27 -0.67 -0.65456 0.766664 0.00976747 0.00969701 1.64749e-05 0.00974951 1.71544e-07 272.922 
-0.25 -0.67 -0.321424 0.59418 0.00977961 0.00969291 4.78391e-06 0.00974828 1.71606e-07 272.788 
-0.25 -0.81 -0.210358 0.398446 0.00977747 0.00971125 2.0713e-05 0.00975699 1.71461e-07 273.262 
-0.25 -0.79 -0.759245 0.283191 0.00979061 0.00973678 2.39824e-05 0.00975998 1.71367e-07 273.497 
-0.35 -0.55 0.0751242 0.83119 0.00979573 0.00970625 1.89285e-05 0.00974927 1.71551e-07 272.904 
-0.39 -0.53 -0.16758 1.21888 0.00978684 0.00969982 8.37891e-06 0.00975729 1.71513e-07 273.188 
-0.37 -0.57 0.035744 1.06562 0.00978436 0.009709 5.6694e-06 0.00974556 1.71262e-07 273.26 
-0.41 -0.55 0.152865 1.00207 0.00975587 0.00971124 -1.26292e-05 0.00974345 1.71557e-07 272.731 
-0.45 -0.53 0.116436 0.43482 0.00978427 0.00969307 -9.89377e-06 0.00972951 1.71342e-07 272.682 
-0.35 -0.57 -0.0828008 0.726121 0.00976149 0.00968142 2.92932e-05 0.00972396 1.71217e-07 272.725 
-0.39 -0.55 -0.242734 1.01274 0.00976253 0.0097022 1.20549e-05 0.00975113 1.71551e-07 272.955 
-0.43 -0.53 -0.298061 0.520422 0.00978801 0.0096946 4.12174e-06 0.00974079 1.71328e-07 273.021 
-0.47 -0.51 -0.486675 0.358235 0.00979259 0.00969819 6.02121e-06 0.00973755 1.71486e-07 272.679 
-0.37 -0.55 -0.0529444 1.12602 0.00975241 0.00967852 -2.84789e-06 0.0097185 1.70939e-07 273.016 
-0.41 -0.53 -0.425521 0.56427 0.00978922 0.00971022 6.00975e-06 0.00974618 1.71373e-07 273.1 
-0.45 -0.51 -0.480173 0.473622 0.00979452 0.00969298 6.59283e-06 0.00974701 1.71676e-07 272.642 
-0.37 -0.53 -0.13738 1.02622 0.00977047 0.00969726 1.25643e-05 0.00974923 1.71707e-07 272.654 
-0.41 -0.51 -0.516795 0.669547 0.00978574 0.0097085 7.19037e-06 0.00974419 1.71385e-07 273.026 
-0.35 -0.53 -0.180991 0.816517 0.00974251 0.0096836 -1.08163e-05 0.00971376 1.71345e-07 272.236 
-0.39 -0.51 -0.508452 0.896707 0.00977208 0.00968651 4.80864e-06 0.0097246 1.71194e-07 272.781 
-0.37 -0.51 -0.523719 1.0371 0.00979233 0.00970279 1.91236e-05 0.0097506 1.71709e-07 272.69 
-0.35 -0.51 -0.586621 0.70872 0.00978926 0.00969048 2.61216e-06 0.00974028 1.7149e-07 272.748 
-0.49 -0.65 0.0271272 0.346711 0.00977355 0.00970291 1.28236e-05 0.00973763 1.71403e-07 272.813 
-0.47 -0.65 -0.199011 0.390473 0.00978276 0.00973598 1.71453e-05 0.00976377 1.71891e-07 272.768 
-0.45 -0.65 -0.047689 0.379317 0.00976592 0.00974889 2.89742e-06 0.00976405 1.72272e-07 272.173 
-0.49 -0.63 0.0204206 0.223203 0.00975697 0.00970261 1.47711e-05 0.00974785 1.71777e-07 272.505 
-0.43 -0.65 -0.0591551 0.597259 0.00973673 0.00967628 1.07015e-05 0.00972127 1.7126e-07 272.582 
-0.47 -0.63 0.127414 0.607233 0.00977214 0.00973577 1.16996e-06 0.00977 1.72252e-07 272.37 
-0.41 -0.65 0.0781247 0.399315 0.00974628 0.00967957 2.11959e-06 0.00971704 1.70998e-07 272.881 
-0.45 -0.63 -0.540608 0.467487 0.00979461 0.00973938 3.16369e-05 0.00976718 1.72284e-07 272.242 
-0.49 -0.61 -0.162883 0.344935 0.00978606 0.00971178 -7.646e-06 0.00975944 1.71971e-07 272.521 
-0.39 -0.65 0.325509 0.275972 0.00974461 0.00971323 9.21918e-06 0.00972161 1.71197e-07 272.693 
-0.43 -0.63 -0.605277 0.554581 0.009774 0.00969102 4.21943e-06 0.00973277 1.71241e-07 272.934 
-0.47 -0.61 -0.323914 0.464257 0.00978724 0.00972863 5.49953e-06 0.00977744 1.72201e-07 272.659 
-0.37 -0.65 -0.422917 -0.0147096 0.00975271 0.00968822 -1.01946e-05 0.00971366 1.71007e-07 272.772 
-0.41 -0.63 -0.885521 0.279389 0.00977487 0.00967647 1.06303e-05 0.00973019 1.71168e-07 272.978 
-0.45 -0.61 0.136792 0.706648 0.00978168 0.00972461 -2.65813e-06 0.00977126 1.72151e-07 272.566 
-0.49 -0.59 -0.0728151 0.368011 0.00976452 0.00968903 -2.52469e-05 0.00974235 1.71646e-07 272.559 
-0.35 -0.65 -0.663515 0.19553 0.0097652 0.00974824 1.10902e-05 0.00973917 1.71473e-07 272.745 
-0.39 -0.63 -0.809984 0.361962 0.0097865 0.00972712 5.57681e-08 0.00973713 1.71391e-07 272.819 
-0.43 -0.61 0.0368499 0.868819 0.00981159 0.00970234 2.61163e-05 0.00977577 1.71785e-07 273.273 
-0.47 -0.59 -0.261518 0.575152 0.00979423 0.00972526 -8.7572e-06 0.00977703 1.71953e-07 273.04 
-0.37 -0.63 -0.782737 0.65089 0.009772 0.00969559 -3.92108e-06 0.00972804 1.7146e-07 272.454 
-0.41 -0.61 -0.237428 0.552989 0.00981052 0.00970096 5.36001e-06 0.00975966 1.71425e-07 273.394 
-0.45 -0.59 -0.168268 0.10573 0.00980943 0.00971924 9.38071e-06 0.00978241 1.72146e-07 272.885 
-0.49 -0.57 0.291722 0.355101 0.00978667 0.00969986 -1.44563e-05 0.00973335 1.71144e-07 273.106 
-0.35 -0.63 -0.994057 0.304726 0.00975845 0.00971272 4.68954e-06 0.00972267 1.71255e-07 272.63 
-0.39 -0.61 -0.459729 0.0873203 0.00981302 0.00970627 -3.69627e-06 0.00975673 1.71635e-07 272.978 
-0.43 -0.59 0.343719 0.792586 0.00980049 0.00970045 5.7875e-06 0.00975696 1.71884e-07 272.59 
-0.47 -0.57 0.0894433 0.561193 0.00977151 0.00970906 -1.20482e-05 0.00974072 1.71522e-07 272.711 
-0.37 -0.61 -0.487728 0.635765 0.00981313 0.0097033 1.8641e-05 0.0097633 1.71639e-07 273.156 
-0.41 -0.59 0.302453 0.798458 0.00979641 0.00971155 4.03919e-06 0.00975856 1.71476e-07 273.283 
-0.45 -0.57 0.167943 0.0929649 0.00976287 0.00969663 -8.76613e-07 0.00973613 1.715e-07 272.617 
-0.49 -0.55 -0.150479 0.237278 0.00977428 0.00970875 -6.91729e-06 0.00974156 1.71697e-07 272.457 
-0.35 -0.61 -0.46277 0.618501 0.00980714 0.00970184 9.35723e-06 0.00974172 1.71269e-07 273.141 
-0.39 -0.59 0.128762 0.756476 0.00978198 0.00966665 1.10883e-05 0.0097323 1.71266e-07 272.882 
-0.43 -0.57 0.12873 0.488552 0.00977991 0.00969613 3.16371e-06 0.00974723 1.71178e-07 273.44 
-0.47 -0.55 0.128043 0.730552 0.00976868 0.00968479 -1.46465e-05 0.00972286 1.71686e-07 271.95 
-0.33 -0.61 -0.789124 0.402052 0.0097993 0.00969888 2.50623e-05 0.009757 1.71491e-07 273.215 
-0.37 -0.59 -0.509038 0.493958 0.00978308 0.0097329 1.3106e-05 0.00976076 1.71476e-07 273.345 
-0.41 -0.57 0.195895 0.800404 0.00978303 0.00972042 2.53654e-05 0.00974872 1.71392e-07 273.141 
-0.45 -0.55 -0.0625748 -0.181698 0.00976275 0.0096887 -5.92351e-06 0.00970977 1.71128e-07 272.469 
-0.49 -0.53 0.139515 0.44933 0.00978951 0.00971022 1.21751e-05 0.00974463 1.71499e-07 272.857 
-0.35 -0.59 -0.786282 0.922724 0.00979145 0.00968177 1.08798e-05 0.00973679 1.71409e-07 272.78 
-0.39 -0.57 -0.0998526 1.17855 0.00977703 0.00968025 -3.38353e-07 0.00973565 1.71255e-07 272.994 
-0.43 -0.55 0.0266136 0.444765 0.00975714 0.0096959 1.83899e-05 0.00973945 1.71517e-07 272.683 
-0.47 -0.53 0.117051 0.167798 0.00978309 0.00968798 7.37507e-06 0.00972409 1.7134e-07 272.534 
-0.29 -0.57 -0.425221 0.333722 0.00976851 0.00967731 1.88187e-05 0.00972171 1.71151e-07 272.767 
-0.33 -0.55 -0.503488 0.978582 0.00979235 0.00971394 5.35161e-06 0.00973979 1.71345e-07 272.965 
-0.29 -0.61 -0.68276 0.47621 0.00977187 0.00969792 5.32693e-06 0.0097373 1.71504e-07 272.643 
-0.33 -0.59 -0.609018 0.761161 0.00979977 0.00970222 2.4974e-05 0.0097635 1.71747e-07 272.989 
-0.27 -0.61 -0.897546 0.7804 0.00978861 0.00969171 1.98811e-05 0.00974445 1.71649e-07 272.612 
-0.31 -0.59 -1.04517 0.718058 0.00980111 0.0097425 1.80285e-05 0.00976267 1.71859e-07 272.789 
-0.29 -0.59 -0.880966 0.0840962 0.00979827 0.00967789 2.2731e-05 0.00973023 1.7116e-07 272.993 
-0.33 -0.57 -0.282422 0.706899 0.00976352 0.00971204 -8.51496e-07 0.00972276 1.71128e-07 272.834 
-0.27 -0.59 -0.568083 0.844496 0.00978134 0.00969617 2.56735e-05 0.0097444 1.71267e-07 273.22 
-0.31 -0.57 -0.153137 0.667049 0.00977766 0.00972072 1.31388e-05 0.00975611 1.71581e-07 273.047 
-0.27 -0.57 -0.482706 0.314014 0.00978133 0.00969482 2.86529e-05 0.0097553 1.71602e-07 272.992 
-0.31 -0.55 -0.0956264 0.727617 0.00977526 0.00968818 2.60395e-05 0.00972809 1.70876e-07 273.386 
-0.29 -0.55 -0.436217 0.544823 0.00976437 0.00969768 3.23294e-05 0.00972374 1.70959e-07 273.132 
-0.33 -0.53 0.0399748 1.33681 0.00975553 0.00971268 1.59043e-05 0.00971846 1.70907e-07 273.066 
-0.27 -0.55 -0.41743 0.387991 0.00974399 0.00966656 3.20754e-05 0.0097096 1.71282e-07 272.22 
-0.31 -0.53 -0.234896 0.524437 0.00975877 0.00967458 2.53284e-05 0.00972192 1.70813e-07 273.314 
-0.29 -0.53 -0.188312 0.707068 0.00979915 0.0096941 3.73982e-05 0.00974568 1.71362e-07 273.104 
-0.33 -0.51 -0.270888 0.879355 0.00978247 0.00969036 2.18171e-05 0.00973651 1.71354e-07 272.86 
-0.27 -0.53 -0.189673 0.394823 0.00978798 0.00967481 3.59456e-05 0.00973006 1.7124e-07 272.861 
-0.31 -0.51 -0.0966305 0.688563 0.00976651 0.00967795 8.13831e-06 0.00971621 1.70941e-07 272.949 
-0.29 -0.51 -0.053399 0.627243 0.00975117 0.00966781 2.50885e-05 0.00971249 1.70895e-07 272.918 
-0.27 -0.51 -0.13329 0.764513 0.00978257 0.0096914 3.37543e-05 0.00974692 1.71251e-07 273.315 
-0.33 -0.65 -1.07863 0.204939 0.00976607 0.00972201 1.23682e-05 0.00974436 1.7128e-07 273.198 
-0.31 -0.65 -0.736856 0.922867 0.00975775 0.00969327 1.61568e-05 0.00974129 1.71322e-07 273.045 
-0.29 -0.65 -0.607922 0.531136 0.009741 0.00969612 1.69665e-05 0.00973002 1.71327e-07 272.72 
-0.33 -0.63 -0.61547 0.362514 0.00975765 0.00972623 2.97279e-05 0.00973733 1.71175e-07 273.167 
-0.27 -0.65 -0.607396 0.707188 0.00976476 0.00971888 1.37879e-05 0.00974959 1.71603e-07 272.83 
-0.31 -0.63 -0.837782 0.511264 0.00974057 0.00967613 8.70616e-06 0.0097162 1.70875e-07 273.054 
-0.25 -0.65 -0.691962 0.213766 0.00975558 0.00968488 1.13692e-05 0.0097274 1.71405e-07 272.523 
-0.29 -0.63 -0.860076 0.263974 0.0097696 0.00972103 6.16312e-06 0.0097325 1.71315e-07 272.809 
-0.27 -0.63 -0.805646 0.757652 0.00974017 0.00969505 1.5057e-05 0.00972439 1.71621e-07 272.096 
-0.31 -0.61 -0.946058 0.503336 0.00979491 0.00972465 1.94827e-05 0.0097578 1.71653e-07 272.98 
-0.49 -0.67 0.138798 0.523493 0.00978457 0.0097015 -8.8709e-08 0.00974323 1.71254e-07 273.207 
-0.47 -0.67 0.157127 -0.343723 0.00976799 0.0097401 4.16242e-06 0.00975386 1.71745e-07 272.723 
-0.45 -0.67 0.134299 1.01849 0.00975709 0.00972501 2.31061e-06 0.00974193 1.71466e-07 272.834 
-0.43 -0.67 0.0885488 0.230154 0.00977535 0.00970146 -2.22454e-06 0.00973833 1.71849e-07 272.125 