ITEM: TIMESTEP
1037500
ITEM: NUMBER OF CELLS
5000
ITEM: BOX BOUNDS ss ss pp
-0.5 0.5
-1 1
-0.5 0.5
ITEM: CELLS xc yc f_U[*] f_V[*] f_Tau[1] f_Tau[2] f_Tau[3] f_Press[*] f_Mrho[*] f_Ttra[*] 
-0.49 -0.99 -0.0335153 0.100482 0.00976368 0.00973536 9.4149e-06 0.00975112 1.71558e-07 272.944 
-0.47 -0.99 -0.158545 0.0236884 0.00974967 0.00971887 8.44957e-06 0.00973812 1.7145e-07 272.752 
-0.45 -0.99 -0.276236 0.0225967 0.009752 0.00973007 6.16522e-06 0.00974578 1.7146e-07 272.951 
-0.49 -0.97 -0.0614243 0.145172 0.00974443 0.00972553 1.24113e-05 0.00973493 1.71343e-07 272.833 
-0.43 -0.99 -0.293192 -0.0719311 0.00974431 0.0097248 5.60235e-06 0.00973955 1.71308e-07 273.018 
-0.47 -0.97 -0.118923 0.126211 0.0097459 0.00972149 1.4316e-05 0.0097387 1.7138e-07 272.879 
-0.41 -0.99 -0.118844 -0.0483331 0.00974045 0.00973035 1.39717e-06 0.00973959 1.71334e-07 272.978 
-0.45 -0.97 -0.0493831 0.0386194 0.00974454 0.00973436 5.97283e-06 0.00974467 1.7144e-07 272.952 
-0.49 -0.95 0.0457693 0.112906 0.00973368 0.00971409 2.90503e-06 0.00973258 1.71247e-07 272.92 
-0.39 -0.99 -0.166478 0.0701177 0.00974294 0.00972735 1.1551e-06 0.00973555 1.71145e-07 273.166 
-0.43 -0.97 0.00368864 0.0387117 0.00974896 0.00972716 2.61337e-06 0.0097437 1.71376e-07 273.026 
-0.47 -0.95 0.133785 0.11781 0.00975015 0.00972786 9.09895e-07 0.00973933 1.71373e-07 272.909 
-0.37 -0.99 -0.17417 -0.0392425 0.00973991 0.00972823 7.54639e-06 0.0097363 1.71282e-07 272.969 
-0.41 -0.97 -0.185652 -0.154685 0.00974483 0.00972915 5.31837e-06 0.00973975 1.71377e-07 272.914 
-0.45 -0.95 0.236028 -0.0766973 0.0097579 0.00973909 7.31425e-06 0.00975478 1.71598e-07 272.984 
-0.49 -0.93 -0.00176475 0.0807424 0.00976827 0.00972328 5.22564e-07 0.00974969 1.71518e-07 272.968 
-0.35 -0.99 -0.0849705 -0.114999 0.00973122 0.00970852 5.1003e-06 0.00971635 1.71029e-07 272.813 
-0.39 -0.97 -0.0376692 0.0233779 0.00974058 0.00972626 6.93971e-06 0.00974006 1.71429e-07 272.84 
-0.43 -0.95 0.155716 0.0682308 0.00975742 0.009723 7.35806e-06 0.00974694 1.71506e-07 272.91 
-0.47 -0.93 0.0233251 0.0114514 0.00975941 0.00972394 1.11285e-06 0.00974497 1.71501e-07 272.863 
-0.33 -0.99 -0.0303328 0.0382761 0.00973161 0.00972714 4.94022e-06 0.00972592 1.71212e-07 272.789 
-0.37 -0.97 -7.82159e-05 -0.123611 0.00973859 0.00972779 6.2851e-06 0.00974042 1.71326e-07 273.013 
-0.41 -0.95 0.0594433 0.0467724 0.00975734 0.00973039 4.38283e-06 0.00974441 1.7154e-07 272.785 
-0.45 -0.93 -0.0503901 0.0419921 0.00975594 0.00973293 4.84152e-06 0.00974579 1.71529e-07 272.84 
-0.49 -0.91 0.00368405 0.171775 0.00977503 0.00972954 1.20411e-05 0.00975608 1.71512e-07 273.156 
-0.35 -0.97 -0.0303048 -0.0428828 0.00973707 0.00971238 9.42604e-06 0.00972941 1.71193e-07 272.917 
-0.39 -0.95 -0.136399 -0.0889393 0.0097539 0.00972615 7.83988e-06 0.00974061 1.71489e-07 272.76 
-0.43 -0.93 -0.062582 0.0751679 0.00975614 0.00972648 3.06836e-06 0.00973884 1.71415e-07 272.828 
-0.47 -0.91 -0.183613 0.00421781 0.00976607 0.00972563 7.39622e-06 0.00974605 1.71548e-07 272.818 
-0.33 -0.97 -0.115437 -0.0198741 0.00974016 0.00972458 4.22841e-06 0.00973739 1.7143e-07 272.764 
-0.37 -0.95 -0.105221 -0.103497 0.00975495 0.00972102 1.28223e-05 0.00974245 1.71318e-07 273.083 
-0.41 -0.93 -0.0226109 0.0695047 0.00975378 0.009726 1.14959e-05 0.00973428 1.71318e-07 272.854 
-0.45 -0.91 -0.0475796 0.0199321 0.00976682 0.00972788 6.12959e-06 0.00975322 1.71591e-07 272.951 
-0.49 -0.89 0.00185146 0.127901 0.00976735 0.00972905 1.16731e-05 0.00974961 1.71462e-07 273.055 
-0.35 -0.95 -0.0537556 -0.00350261 0.00975578 0.00972117 5.29202e-06 0.00974167 1.71403e-07 272.926 
-0.39 -0.93 0.070547 -0.0702517 0.00975209 0.00972649 8.27318e-06 0.00974168 1.71584e-07 272.639 
-0.43 -0.91 -0.0983021 0.0283135 0.00975974 0.00973124 9.00952e-06 0.00974373 1.71355e-07 273.061 
-0.47 -0.89 0.0972885 0.113 0.00976835 0.00973205 8.3229e-06 0.00974949 1.7159e-07 272.848 
-0.37 -0.93 -0.0157405 -0.022482 0.00975462 0.00972229 3.85836e-06 0.00974545 1.71413e-07 273.015 
-0.41 -0.91 -0.0201851 -0.00547461 0.00976615 0.00971827 5.44932e-06 0.00974146 1.7138e-07 272.957 
-0.45 -0.89 -0.0738999 0.12612 0.00976092 0.00972101 4.735e-06 0.00974375 1.71442e-07 272.923 
-0.49 -0.87 -0.0267786 0.149124 0.0097504 0.00971691 -2.99556e-07 0.00973335 1.7131e-07 272.841 
-0.35 -0.93 -0.340978 0.0542029 0.00975606 0.0097226 1.07559e-05 0.00973884 1.71415e-07 272.828 
-0.39 -0.91 -0.0582177 -0.0525488 0.00976845 0.00973068 1.28967e-05 0.00975353 1.7171e-07 272.77 
-0.43 -0.89 -0.156889 0.0290885 0.00976779 0.00973867 6.96043e-06 0.00975329 1.71511e-07 273.079 
-0.47 -0.87 0.0766077 0.124491 0.0097582 0.00973306 8.93883e-06 0.0097421 1.71391e-07 272.957 
-0.37 -0.91 -0.212447 0.25134 0.00975653 0.00972157 1.13887e-05 0.00974001 1.71592e-07 272.579 
-0.41 -0.89 -0.180599 -0.0409359 0.0097608 0.00971273 4.67408e-06 0.0097409 1.71492e-07 272.763 
-0.45 -0.87 -0.100631 0.146612 0.00976573 0.00972032 9.27998e-06 0.00974893 1.71489e-07 272.993 
-0.49 -0.85 -0.0509584 0.145269 0.00975343 0.0097147 -8.76877e-07 0.00973266 1.71216e-07 272.972 
-0.35 -0.91 -0.125428 0.131323 0.00975093 0.00972247 4.48568e-06 0.00973682 1.71432e-07 272.744 
-0.39 -0.89 -0.131427 0.141719 0.00975743 0.0097208 1.2691e-05 0.00974727 1.71546e-07 272.856 
-0.43 -0.87 -0.0731952 0.15185 0.00975386 0.00973894 1.13567e-05 0.00974898 1.71561e-07 272.88 
-0.47 -0.85 -0.129667 0.196178 0.00975599 0.00972544 1.8124e-06 0.00974551 1.71362e-07 273.099 
-0.33 -0.91 -0.205321 -0.0448843 0.00975527 0.00971906 1.31074e-05 0.00974022 1.71469e-07 272.78 
-0.37 -0.89 -0.212715 0.133948 0.00976451 0.00973232 1.67952e-05 0.00975586 1.71694e-07 272.861 
-0.41 -0.87 -0.20843 -0.0282929 0.00975642 0.00971516 8.10863e-06 0.00973742 1.71504e-07 272.646 
-0.45 -0.85 -0.0825602 0.176038 0.00975832 0.00971755 8.5849e-06 0.00974323 1.71347e-07 273.059 
-0.35 -0.89 -0.218322 0.148201 0.00976635 0.00972079 1.0882e-05 0.00974031 1.71467e-07 272.786 
-0.39 -0.87 -0.287127 0.135274 0.00976377 0.00971556 6.53323e-06 0.00974368 1.71546e-07 272.755 
-0.43 -0.85 -0.194891 0.171706 0.00976885 0.00974034 8.55901e-06 0.00974973 1.71629e-07 272.793 
-0.37 -0.87 -0.340057 0.24738 0.00977052 0.00973128 9.36147e-06 0.00975424 1.71631e-07 272.915 
-0.41 -0.85 -0.155128 0.112055 0.00976987 0.00971938 9.20847e-06 0.00974682 1.71618e-07 272.728 
-0.35 -0.87 -0.334563 0.0886029 0.00976862 0.00972204 1.18992e-05 0.00974426 1.71451e-07 272.922 
-0.39 -0.85 -0.266812 0.336679 0.00976688 0.00971555 2.3795e-06 0.00974791 1.71563e-07 272.847 
-0.33 -0.87 -0.339895 0.11558 0.00976463 0.00972055 1.36961e-05 0.00974497 1.71517e-07 272.837 
-0.37 -0.85 -0.344515 0.112736 0.00976643 0.00972515 9.68171e-06 0.00974752 1.71504e-07 272.93 
-0.35 -0.85 -0.276943 0.133186 0.00976509 0.00971841 1.31625e-05 0.00974278 1.71356e-07 273.033 
-0.33 -0.85 -0.419599 0.253328 0.00976632 0.00972247 1.41842e-05 0.00974126 1.71413e-07 272.899 
-0.31 -0.99 0.0192779 -0.0160143 0.00972836 0.00971462 1.41553e-05 0.00972005 1.71186e-07 272.665 
-0.29 -0.99 -0.0797371 0.0607745 0.00972971 0.00971715 1.06058e-05 0.0097295 1.71198e-07 272.912 
-0.27 -0.99 -0.148586 0.0124548 0.00974219 0.00972726 6.88995e-06 0.00973348 1.71177e-07 273.057 
-0.31 -0.97 -0.344172 0.00510231 0.00974592 0.00971925 5.65397e-06 0.00973485 1.71393e-07 272.751 
-0.29 -0.97 -0.411083 0.226354 0.00975407 0.00971873 8.02345e-06 0.00974653 1.7151e-07 272.891 
-0.33 -0.95 -0.0924733 0.103107 0.00975134 0.00972107 9.82075e-06 0.00973813 1.71343e-07 272.923 
-0.27 -0.97 -0.310302 -0.0630401 0.00974398 0.00972233 1.10302e-05 0.00973798 1.71363e-07 272.886 
-0.31 -0.95 -0.184906 0.24474 0.0097473 0.00972061 7.50018e-06 0.00973243 1.71346e-07 272.758 
-0.29 -0.95 -0.137855 0.0873083 0.00974148 0.00970843 8.3257e-06 0.0097246 1.71246e-07 272.698 
-0.33 -0.93 -0.292348 0.129688 0.009758 0.00971866 5.17561e-06 0.00973702 1.71331e-07 272.91 
-0.27 -0.95 -0.304708 -0.0165206 0.0097471 0.0097284 7.29657e-06 0.00973969 1.71353e-07 272.95 
-0.31 -0.93 -0.0998617 0.0873254 0.0097584 0.00971867 1.03227e-05 0.00974009 1.71572e-07 272.612 
-0.29 -0.93 -0.186087 0.243139 0.00975981 0.0097118 8.98388e-06 0.00973911 1.71474e-07 272.741 
-0.27 -0.93 -0.207024 0.112153 0.00975835 0.00972183 1.00173e-05 0.00974317 1.71495e-07 272.821 
-0.31 -0.91 -0.234986 0.177341 0.00975534 0.00971878 9.63084e-06 0.00974032 1.71492e-07 272.747 
-0.29 -0.91 -0.256092 0.126673 0.00975232 0.00971222 3.47354e-06 0.00973116 1.71359e-07 272.702 
-0.33 -0.89 -0.242246 0.0218432 0.00975845 0.00972151 7.12909e-06 0.00974294 1.71467e-07 272.86 
-0.27 -0.91 -0.0782114 0.147699 0.00975523 0.00971865 6.30567e-06 0.00973564 1.71457e-07 272.671 
-0.31 -0.89 -0.218652 0.185808 0.00976048 0.00972051 4.98506e-06 0.00974651 1.71558e-07 272.815 
-0.29 -0.89 -0.19314 0.0387494 0.0097579 0.00971286 8.99904e-06 0.00974154 1.71357e-07 272.996 
-0.27 -0.89 -0.311982 0.255935 0.00975072 0.00971534 1.03425e-05 0.0097409 1.71425e-07 272.87 
-0.31 -0.87 -0.435271 0.200862 0.00975856 0.00972304 8.47837e-06 0.0097403 1.71453e-07 272.808 
-0.29 -0.87 -0.422326 0.0917305 0.00975307 0.00970645 9.44366e-06 0.00973556 1.71284e-07 272.945 
-0.27 -0.87 -0.412071 0.238943 0.00975593 0.00971788 1.4903e-05 0.00974087 1.71399e-07 272.91 
-0.31 -0.85 -0.383675 0.0118588 0.00976472 0.00972438 1.7176e-05 0.00974598 1.71494e-07 272.902 
-0.29 -0.85 -0.23686 0.196384 0.00975718 0.00970666 1.35516e-05 0.00974015 1.71383e-07 272.916 
-0.27 -0.85 -0.265352 0.133534 0.00975425 0.00971586 1.06658e-05 0.00973826 1.71179e-07 273.188 
-0.25 -0.99 -0.25914 0.0736217 0.00974646 0.00973533 1.10613e-05 0.00974306 1.71393e-07 272.98 
-0.25 -0.97 -0.200624 0.0852542 0.00974377 0.00972897 8.00058e-06 0.00973998 1.71456e-07 272.794 
-0.25 -0.95 -0.421533 0.0353206 0.00974448 0.00973001 1.02884e-05 0.00973929 1.71355e-07 272.937 
-0.25 -0.93 -0.192375 0.0643465 0.00975879 0.00973383 1.29451e-05 0.00974428 1.71538e-07 272.785 
-0.25 -0.91 -0.25919 0.114471 0.00975576 0.00972983 1.10376e-05 0.00974506 1.71585e-07 272.731 
-0.25 -0.89 -0.311421 0.203808 0.00974955 0.00972233 1.47414e-05 0.00973761 1.71343e-07 272.908 
-0.25 -0.87 -0.413258 0.207776 0.00975058 0.00971637 1.60795e-05 0.00973816 1.71304e-07 272.986 
-0.25 -0.85 -0.235436 0.301973 0.00976239 0.00971977 1.08673e-05 0.0097461 1.71388e-07 273.074 
-0.25 -0.83 -0.438412 0.271625 0.00975853 0.00971356 8.626e-06 0.00974154 1.71323e-07 273.05 
-0.33 -0.81 -0.0805838 0.222699 0.00976353 0.00971157 1.31326e-05 0.00974001 1.71448e-07 272.808 
-0.31 -0.81 -0.205947 0.159211 0.00977773 0.0097233 1.37011e-05 0.00975282 1.71486e-07 273.106 
-0.29 -0.81 -0.251248 0.127823 0.00977903 0.00972445 1.18739e-05 0.00975527 1.7153e-07 273.105 
-0.27 -0.81 -0.342391 0.307876 0.00977409 0.00971609 1.34159e-05 0.00975186 1.71463e-07 273.117 
-0.31 -0.79 -0.252828 0.176983 0.00975541 0.00971835 7.90288e-06 0.00973866 1.71431e-07 272.798 
-0.29 -0.79 -0.338696 0.360426 0.00975951 0.00972068 1.28183e-05 0.00973984 1.71492e-07 272.734 
-0.33 -0.77 -0.307587 0.313148 0.00976936 0.00972373 1.83876e-05 0.00974558 1.71508e-07 272.869 
-0.27 -0.79 -0.4281 0.268654 0.00976285 0.00971229 1.44595e-05 0.00974085 1.71409e-07 272.894 
-0.31 -0.77 -0.290443 0.171896 0.00976584 0.00971802 1.23629e-05 0.00974446 1.7154e-07 272.786 
-0.29 -0.77 -0.289035 0.388606 0.00975757 0.00971753 1.05398e-05 0.00974112 1.71592e-07 272.61 
-0.27 -0.77 -0.348921 0.26372 0.0097566 0.00970921 1.03622e-05 0.00973755 1.71397e-07 272.82 
-0.31 -0.75 -0.204426 0.370927 0.00976295 0.00972171 1.33924e-05 0.0097507 1.7163e-07 272.818 
-0.29 -0.75 -0.489116 0.388714 0.00976275 0.00972005 1.54558e-05 0.00974899 1.71571e-07 272.863 
-0.27 -0.75 -0.502498 0.513376 0.00976242 0.00970712 1.82273e-05 0.00973504 1.7133e-07 272.856 
-0.49 -0.83 -0.0394599 0.26151 0.00975339 0.00971744 -1.78333e-06 0.00973636 1.71339e-07 272.88 
-0.47 -0.83 -0.149008 0.150945 0.00975263 0.00972012 2.91334e-06 0.00973847 1.71565e-07 272.579 
-0.45 -0.83 -0.162403 0.252595 0.00975472 0.0097204 -9.42669e-07 0.00973991 1.71419e-07 272.852 
-0.49 -0.81 -0.0251488 0.308433 0.0097632 0.00971999 3.82666e-07 0.00974287 1.71482e-07 272.834 
-0.43 -0.83 -0.138768 0.227687 0.00975621 0.00972585 4.73823e-06 0.00974168 1.71476e-07 272.81 
-0.47 -0.81 -0.11241 0.223603 0.00976352 0.00971968 -1.17289e-06 0.00974625 1.71529e-07 272.854 
-0.45 -0.81 -0.0792139 0.235705 0.00976727 0.00972359 1.38573e-06 0.00974461 1.71505e-07 272.846 
-0.49 -0.79 -0.0308056 0.474464 0.00976064 0.00972201 3.03804e-06 0.00974157 1.71451e-07 272.847 
-0.43 -0.81 -0.0850204 0.266225 0.00976199 0.00971335 3.56204e-06 0.00974021 1.71573e-07 272.614 
-0.47 -0.79 -0.000700578 0.0968004 0.00975602 0.00972029 -5.57528e-06 0.00974056 1.71428e-07 272.856 
-0.41 -0.81 -0.239041 0.211146 0.00976543 0.00972972 1.07016e-05 0.00975323 1.71598e-07 272.94 
-0.45 -0.79 -0.0336662 0.267426 0.00975692 0.00971775 1.67796e-06 0.00973523 1.71423e-07 272.713 
-0.49 -0.77 0.0579479 0.381143 0.00975955 0.00972422 4.83748e-06 0.00974536 1.7142e-07 273.002 
-0.39 -0.81 -0.299163 0.246867 0.00975716 0.0097146 1.48032e-05 0.00974267 1.71567e-07 272.693 
-0.43 -0.79 -0.277827 0.400454 0.00976488 0.00971084 3.19604e-06 0.00973692 1.71475e-07 272.679 
-0.47 -0.77 -0.0118874 0.260762 0.0097578 0.00972653 3.58434e-06 0.00974519 1.71411e-07 273.012 
-0.37 -0.81 -0.0524869 0.0860333 0.00975695 0.00971795 9.91053e-06 0.00973754 1.71539e-07 272.594 
-0.41 -0.79 -0.300805 0.306101 0.0097672 0.00972535 8.20511e-06 0.00975091 1.71685e-07 272.736 
-0.45 -0.77 -0.312048 0.441368 0.00975694 0.00971331 -3.56721e-06 0.00973559 1.71439e-07 272.698 
-0.35 -0.81 0.0149348 0.187304 0.00975179 0.00971469 7.5672e-06 0.00973886 1.7145e-07 272.773 
-0.39 -0.79 -0.21926 0.15009 0.00976728 0.00971342 9.39957e-06 0.00974191 1.71592e-07 272.632 
-0.43 -0.77 -0.244579 0.437314 0.00975426 0.00971049 7.65936e-07 0.00973399 1.71428e-07 272.672 
-0.37 -0.79 -0.227365 0.0630381 0.00977566 0.00971684 1.09967e-05 0.0097453 1.71583e-07 272.742 
-0.41 -0.77 -0.216178 0.150401 0.00975416 0.00971178 8.33176e-06 0.00973469 1.71388e-07 272.755 
-0.35 -0.79 -0.230109 0.140136 0.00977504 0.00971846 1.4741e-05 0.00974863 1.71615e-07 272.784 
-0.39 -0.77 -0.0783517 0.153664 0.0097565 0.0097224 1.09501e-05 0.00974499 1.71606e-07 272.695 
-0.43 -0.75 0.00964668 0.18015 0.00976598 0.00970942 -1.40794e-06 0.00974175 1.71459e-07 272.839 
-0.33 -0.79 -0.263548 0.285472 0.00975996 0.00971434 7.42562e-06 0.00973768 1.71428e-07 272.775 
-0.37 -0.77 -0.14623 0.168343 0.00975685 0.00971347 3.60817e-06 0.00973728 1.71449e-07 272.73 
-0.41 -0.75 -0.0302774 0.342517 0.00976723 0.00970472 5.57971e-06 0.00974252 1.71547e-07 272.722 
-0.35 -0.77 -0.373053 0.256093 0.00976511 0.00971428 1.01995e-05 0.00973901 1.7142e-07 272.825 
-0.39 -0.75 -0.263035 0.178784 0.00977189 0.00972313 7.3242e-06 0.00975176 1.71683e-07 272.763 
-0.49 -0.75 -0.0351087 0.33018 0.00976609 0.00972851 7.34489e-06 0.00975069 1.71488e-07 273.044 
-0.47 -0.75 -0.0971381 0.471816 0.00976463 0.00973254 5.93619e-06 0.0097445 1.71368e-07 273.062 
-0.45 -0.75 -0.123521 0.538386 0.00976233 0.00971107 1.03328e-06 0.00973418 1.71459e-07 272.627 
-0.49 -0.73 -0.0972669 0.521715 0.00976994 0.00972109 6.87061e-06 0.00974543 1.71413e-07 273.015 
-0.47 -0.73 -0.190011 0.435531 0.00977325 0.00974132 4.16934e-06 0.00975326 1.71453e-07 273.171 
-0.45 -0.73 -0.107012 0.29015 0.00977445 0.00971575 -3.5771e-06 0.00974124 1.71462e-07 272.82 
-0.49 -0.71 0.000792974 0.605674 0.00977188 0.00971913 3.4853e-07 0.00974493 1.71523e-07 272.827 
-0.43 -0.73 -0.0600929 0.3698 0.0097648 0.00970384 6.39197e-06 0.00973649 1.71399e-07 272.787 
-0.47 -0.71 -0.0113003 0.479514 0.00977417 0.00973928 1.97408e-06 0.00975604 1.71519e-07 273.144 
-0.37 -0.75 -0.215875 0.14368 0.00976388 0.00971431 1.27814e-05 0.00973796 1.71489e-07 272.686 
-0.41 -0.73 -0.156685 0.344656 0.00976325 0.00970266 3.74797e-07 0.00973754 1.71552e-07 272.574 
-0.45 -0.71 0.0737783 0.227776 0.00976359 0.00971497 9.29734e-06 0.00973909 1.7132e-07 272.986 
-0.49 -0.69 0.0563088 0.531769 0.00976385 0.00971415 -7.42801e-06 0.00974184 1.71413e-07 272.915 
-0.35 -0.75 -0.0439922 0.265588 0.00975571 0.00970994 1.02558e-05 0.00973375 1.7137e-07 272.756 
-0.39 -0.73 -0.150444 0.214768 0.00976426 0.00971 1.0853e-05 0.00973947 1.71395e-07 272.877 
-0.43 -0.71 -0.133032 0.369745 0.0097639 0.00970618 4.83629e-06 0.0097378 1.71527e-07 272.62 
-0.47 -0.69 0.166369 0.424954 0.00976802 0.00972808 4.84766e-06 0.00974904 1.71447e-07 273.063 
-0.37 -0.73 -0.318523 0.169134 0.00976983 0.00972065 1.28145e-05 0.00974461 1.71527e-07 272.811 
-0.41 -0.71 -0.0861541 0.471288 0.00976802 0.00969714 3.73164e-06 0.00973794 1.7167e-07 272.397 
-0.45 -0.69 -0.0608634 0.413582 0.00977889 0.00971545 9.81518e-06 0.00975026 1.71576e-07 272.892 
-0.35 -0.73 -0.561798 0.388075 0.00977015 0.00971231 9.63988e-06 0.00974391 1.71563e-07 272.735 
-0.39 -0.71 -0.182078 0.25782 0.00976829 0.00971347 2.67637e-06 0.00973928 1.715e-07 272.704 
-0.43 -0.69 -0.133798 0.446848 0.00977821 0.0097132 8.77241e-06 0.00975275 1.71808e-07 272.593 
-0.33 -0.73 -0.378107 0.151414 0.00977027 0.00970791 1.44991e-05 0.00974125 1.71597e-07 272.605 
-0.37 -0.71 -0.159532 0.248737 0.00976886 0.00971408 1.24674e-05 0.00974446 1.71545e-07 272.778 
-0.41 -0.69 -0.118246 0.377902 0.009771 0.00970266 3.55542e-06 0.00973923 1.71641e-07 272.48 
-0.35 -0.71 -0.257616 0.472877 0.00976839 0.00970741 9.45386e-06 0.00974541 1.71583e-07 272.744 
-0.39 -0.69 -0.121783 0.421114 0.00976404 0.00970368 7.70312e-06 0.00973594 1.71408e-07 272.757 
-0.37 -0.69 -0.319549 0.337091 0.00976215 0.00971171 1.14704e-05 0.00974081 1.71508e-07 272.736 
-0.35 -0.69 -0.316364 0.49331 0.00976345 0.00970396 1.23589e-05 0.00973338 1.71359e-07 272.764 
-0.35 -0.67 -0.243435 0.474814 0.00977453 0.00971384 1.05804e-05 0.00974468 1.71476e-07 272.894 
-0.33 -0.67 -0.360967 0.510921 0.00976099 0.00970397 8.43689e-06 0.00974154 1.71525e-07 272.729 
-0.33 -0.75 -0.113006 0.232231 0.00975733 0.00971588 1.10036e-05 0.00973727 1.7138e-07 272.839 
-0.31 -0.73 -0.428764 0.47805 0.00976778 0.00972541 1.41319e-05 0.00975257 1.71645e-07 272.847 
-0.29 -0.73 -0.324616 0.486545 0.00977113 0.00971184 1.52059e-05 0.00975094 1.71563e-07 272.93 
-0.33 -0.71 -0.524655 0.120614 0.0097652 0.0097119 1.47123e-05 0.00974148 1.71495e-07 272.774 
-0.27 -0.73 -0.40381 0.546621 0.00976583 0.00971691 1.94274e-05 0.00974792 1.71478e-07 272.982 
-0.31 -0.71 -0.409299 0.438709 0.00976475 0.00972247 1.52227e-05 0.00974717 1.71584e-07 272.793 
-0.29 -0.71 -0.488118 0.459343 0.0097604 0.00970774 1.86518e-05 0.00974181 1.71358e-07 273.001 
-0.33 -0.69 -0.338553 0.276193 0.0097745 0.00971256 6.43634e-06 0.00974623 1.71667e-07 272.634 
-0.27 -0.71 -0.424007 0.483813 0.00976573 0.00971221 1.45961e-05 0.00974161 1.71333e-07 273.036 
-0.31 -0.69 -0.581498 0.43955 0.00977831 0.00971661 1.47517e-05 0.00975143 1.71627e-07 272.843 
-0.29 -0.69 -0.513499 0.532026 0.00977728 0.00971311 1.91859e-05 0.0097515 1.71549e-07 272.969 
-0.27 -0.69 -0.535713 0.389777 0.00977556 0.00971583 1.46738e-05 0.00974601 1.71319e-07 273.182 
-0.31 -0.67 -0.427745 0.533272 0.00975845 0.00971274 1.46134e-05 0.00974071 1.71483e-07 272.771 
-0.29 -0.67 -0.483316 0.412255 0.0097627 0.00971126 1.67734e-05 0.00974022 1.71298e-07 273.053 
-0.41 -0.83 -0.192104 0.149378 0.0097569 0.00972616 9.66418e-06 0.00974278 1.71568e-07 272.695 
-0.39 -0.83 -0.167992 0.338986 0.00975605 0.00971725 6.01374e-06 0.00973408 1.7144e-07 272.655 
-0.37 -0.83 -0.189364 0.249453 0.00975013 0.0097182 7.36694e-06 0.00973445 1.71274e-07 272.929 
-0.35 -0.83 -0.275906 0.068669 0.00975673 0.00971553 1.65558e-05 0.00973582 1.71364e-07 272.825 
-0.33 -0.83 -0.181769 0.286055 0.00975543 0.00972196 1.41181e-05 0.009737 1.71247e-07 273.044 
-0.31 -0.83 -0.152236 -0.161949 0.0097495 0.00971366 1.98465e-05 0.00973851 1.71446e-07 272.769 
-0.29 -0.83 -0.22252 0.189328 0.00975615 0.00972094 1.71627e-05 0.00974607 1.71337e-07 273.154 
-0.27 -0.83 -0.320815 0.275804 0.00975723 0.00971622 7.3521e-06 0.0097442 1.71358e-07 273.07 
-0.27 -0.67 -0.500916 0.49108 0.00976007 0.00971766 1.80559e-05 0.00974091 1.71343e-07 273.001 
-0.25 -0.67 -0.533288 0.446843 0.00976957 0.00972086 1.19328e-05 0.00975202 1.71421e-07 273.187 
-0.25 -0.81 -0.29073 0.356398 0.00976166 0.00971341 8.87032e-06 0.00974307 1.71385e-07 272.994 
-0.25 -0.79 -0.341288 0.230495 0.00976614 0.00972181 2.03531e-05 0.00974295 1.71392e-07 272.98 
-0.35 -0.55 -0.208259 0.737064 0.0097828 0.00971208 7.37964e-06 0.0097451 1.7145e-07 272.948 
-0.39 -0.53 -0.25945 0.903491 0.0097741 0.00969024 4.29426e-06 0.00973658 1.71393e-07 272.799 
-0.37 -0.57 -0.246966 0.799199 0.00976814 0.00970452 1.24849e-05 0.00974247 1.71316e-07 273.087 
-0.41 -0.55 -0.184012 0.918985 0.00976116 0.00969867 7.317e-06 0.00973627 1.71419e-07 272.749 
-0.45 -0.53 -0.0944443 0.60231 0.00976135 0.00969569 -1.76982e-06 0.00972767 1.71281e-07 272.729 
-0.35 -0.57 -0.243086 0.746372 0.00977415 0.0097023 2.01539e-05 0.00974116 1.71427e-07 272.873 
-0.39 -0.55 -0.321518 0.75527 0.00976371 0.00968675 4.69803e-06 0.00973522 1.71294e-07 272.919 
-0.43 -0.53 -0.206735 0.804815 0.00976554 0.00969113 4.31901e-06 0.00973083 1.71395e-07 272.635 
-0.47 -0.51 -0.0531082 0.768152 0.00977138 0.00970148 1.22442e-07 0.00973935 1.71529e-07 272.661 
-0.37 -0.55 -0.281647 0.771086 0.00976701 0.00969339 9.68214e-06 0.00973731 1.71234e-07 273.073 
-0.41 -0.53 -0.256178 0.791427 0.00977045 0.0096995 4.17816e-06 0.00973575 1.71459e-07 272.671 
-0.45 -0.51 -0.25712 0.716344 0.00976795 0.00969318 4.64362e-06 0.00973523 1.71439e-07 272.689 
-0.37 -0.53 -0.258835 0.732245 0.00977799 0.00969442 -1.48715e-06 0.0097392 1.71444e-07 272.791 
-0.41 -0.51 -0.312688 0.820508 0.00976462 0.00969929 -1.10704e-06 0.00973468 1.7141e-07 272.719 
-0.35 -0.53 -0.34526 0.758696 0.00977502 0.00970634 7.98097e-06 0.00974123 1.71496e-07 272.767 
-0.39 -0.51 -0.357232 0.895896 0.00977035 0.00969027 -7.94159e-08 0.00973181 1.71413e-07 272.634 
-0.37 -0.51 -0.389729 0.767561 0.00976762 0.00969041 3.10346e-06 0.00973055 1.71284e-07 272.803 
-0.35 -0.51 -0.410174 0.810767 0.00976472 0.00969824 1.0286e-05 0.00972607 1.71306e-07 272.644 
-0.49 -0.65 -0.0644217 0.461995 0.00977322 0.00972374 7.23573e-06 0.00975064 1.71525e-07 272.983 
-0.47 -0.65 -0.0848572 0.419299 0.00976881 0.00971507 1.30061e-06 0.00974652 1.71488e-07 272.926 
-0.45 -0.65 -0.0764282 0.637446 0.00976331 0.00971735 6.2604e-06 0.00974475 1.71617e-07 272.673 
-0.49 -0.63 0.00800928 0.46898 0.00976889 0.00972732 3.55749e-06 0.00975606 1.7181e-07 272.682 
-0.43 -0.65 0.0124119 0.570062 0.00975555 0.00969675 4.97529e-06 0.00973335 1.7142e-07 272.666 
-0.47 -0.63 -0.0153203 0.49486 0.00976437 0.0097071 2.70305e-06 0.00974267 1.71603e-07 272.637 
-0.41 -0.65 0.0305189 0.557575 0.00976047 0.00970437 1.0336e-05 0.00973767 1.71439e-07 272.757 
-0.45 -0.63 -0.0652998 0.58332 0.00977253 0.0097185 7.76793e-06 0.00975001 1.71667e-07 272.739 
-0.49 -0.61 -0.0427441 0.555155 0.00975867 0.00971258 -4.79757e-06 0.0097419 1.71441e-07 272.872 
-0.39 -0.65 -0.0710587 0.479768 0.00975978 0.0097141 7.6692e-06 0.00974028 1.71328e-07 273.007 
-0.43 -0.63 -0.0954163 0.596675 0.00977598 0.00970365 8.96797e-06 0.00974159 1.71335e-07 273.033 
-0.47 -0.61 -0.143069 0.481672 0.00976592 0.00971411 6.78369e-06 0.00974484 1.71509e-07 272.847 
-0.37 -0.65 -0.183452 0.47418 0.00975994 0.00970038 2.063e-06 0.00972944 1.71154e-07 272.979 
-0.41 -0.63 -0.147494 0.618148 0.00976886 0.00969432 2.63149e-06 0.00973452 1.71343e-07 272.822 
-0.45 -0.61 -0.0934035 0.633125 0.00976345 0.0097075 -2.02971e-06 0.00973844 1.71371e-07 272.887 
-0.49 -0.59 -0.0134562 0.524794 0.00977122 0.00970583 -6.01201e-06 0.00974703 1.71629e-07 272.716 
-0.35 -0.65 -0.270922 0.492255 0.00976823 0.00971199 1.19011e-05 0.009739 1.71426e-07 272.816 
-0.39 -0.63 -0.11256 0.547299 0.00977736 0.00971903 1.22182e-05 0.0097483 1.71509e-07 272.943 
-0.43 -0.61 -0.0540716 0.641707 0.00977339 0.00970615 4.87882e-06 0.00974164 1.71374e-07 272.972 
-0.47 -0.59 0.107162 0.549036 0.00977894 0.0097143 -6.28869e-06 0.00974983 1.7154e-07 272.937 
-0.37 -0.63 -0.217699 0.492231 0.00976372 0.00969903 1.16764e-05 0.00973031 1.71172e-07 272.976 
-0.41 -0.61 -0.144393 0.582521 0.00977523 0.00970054 9.5199e-06 0.00973759 1.71321e-07 272.943 
-0.45 -0.59 0.0705132 0.510673 0.00977968 0.00970963 2.77341e-06 0.00975086 1.71514e-07 273.006 
-0.49 -0.57 -0.0552283 0.506174 0.00978187 0.00971012 -5.79358e-06 0.00974975 1.71572e-07 272.884 
-0.35 -0.63 -0.336433 0.592905 0.00975785 0.00970013 1.14759e-05 0.00972885 1.7124e-07 272.826 
-0.39 -0.61 -0.082094 0.481473 0.00977322 0.00970582 9.12125e-06 0.00973851 1.71322e-07 272.967 
-0.43 -0.59 -0.0510895 0.813847 0.00977256 0.00969754 4.73889e-06 0.00974431 1.71536e-07 272.788 
-0.47 -0.57 -0.126329 0.485298 0.00977071 0.00970683 -5.00811e-06 0.00973734 1.71371e-07 272.856 
-0.37 -0.61 -0.161721 0.723724 0.00977498 0.00970562 1.38677e-05 0.00973981 1.71482e-07 272.748 
-0.41 -0.59 -0.0428408 0.547623 0.0097798 0.00970263 3.46154e-06 0.00974027 1.71397e-07 272.896 
-0.45 -0.57 -0.0921198 0.667705 0.00977008 0.00970068 1.36011e-06 0.00973821 1.71363e-07 272.893 
-0.49 -0.55 -0.0398128 0.6455 0.00975513 0.00970597 -5.34166e-06 0.0097331 1.71321e-07 272.817 
-0.35 -0.61 -0.18591 0.609609 0.0097722 0.00969909 1.02616e-05 0.00973213 1.71308e-07 272.81 
-0.39 -0.59 -0.0804737 0.576472 0.00977608 0.00969077 8.97862e-06 0.00973789 1.7137e-07 272.873 
-0.43 -0.57 0.0610291 0.712472 0.00977356 0.00969909 4.44434e-06 0.00974049 1.71384e-07 272.924 
-0.47 -0.55 -0.16448 0.644538 0.00976546 0.00969833 3.56563e-07 0.00973881 1.71481e-07 272.722 
-0.33 -0.61 -0.399657 0.61335 0.00976725 0.0096976 1.74603e-05 0.00973511 1.71256e-07 272.977 
-0.37 -0.59 -0.163306 0.718521 0.00978157 0.00971678 1.93009e-05 0.00975079 1.7159e-07 272.883 
-0.41 -0.57 -0.056823 0.663878 0.00976529 0.00970022 1.10068e-05 0.0097368 1.71241e-07 273.048 
-0.45 -0.55 -0.188544 0.47517 0.00976297 0.00969955 2.66735e-06 0.0097302 1.71222e-07 272.892 
-0.49 -0.53 0.0419201 0.689311 0.00976498 0.00969778 -2.96365e-06 0.00973631 1.71353e-07 272.855 
-0.35 -0.59 -0.312521 0.734697 0.00977156 0.00969294 1.57733e-05 0.00972866 1.71343e-07 272.658 
-0.39 -0.57 -0.256166 0.754161 0.00976656 0.00968405 8.71095e-06 0.00973042 1.71161e-07 272.996 
-0.43 -0.55 -0.173206 0.625821 0.00976019 0.00969336 8.75025e-06 0.00972995 1.71319e-07 272.731 
-0.47 -0.53 0.0108728 0.605375 0.00975712 0.00969968 1.35157e-06 0.00972766 1.71211e-07 272.838 
-0.29 -0.57 -0.577205 0.676359 0.0097732 0.00971527 1.85976e-05 0.00974676 1.71434e-07 273.019 
-0.33 -0.55 -0.373294 0.896538 0.00978505 0.00970877 9.91548e-06 0.00974882 1.71493e-07 272.984 
-0.29 -0.61 -0.326175 0.560047 0.00977058 0.00972017 1.02435e-05 0.00974684 1.71622e-07 272.723 
-0.33 -0.59 -0.30787 0.826052 0.00976898 0.00970209 1.40019e-05 0.00973721 1.71284e-07 272.991 
-0.27 -0.61 -0.405179 0.502045 0.00977857 0.0097106 1.60408e-05 0.00974618 1.7159e-07 272.754 
-0.31 -0.59 -0.418246 0.638813 0.00976998 0.00971 1.08689e-05 0.00973922 1.71416e-07 272.837 
-0.29 -0.59 -0.366424 0.436194 0.00977389 0.00972128 1.1208e-05 0.00974639 1.71576e-07 272.784 
-0.33 -0.57 -0.315689 0.778193 0.00977635 0.00971087 8.55805e-06 0.00974528 1.71391e-07 273.046 
-0.27 -0.59 -0.471466 0.679599 0.00976797 0.00970316 1.29249e-05 0.00973904 1.71474e-07 272.74 
-0.31 -0.57 -0.3505 0.691782 0.00977791 0.00970657 6.25233e-06 0.00974375 1.71503e-07 272.825 
-0.27 -0.57 -0.653811 0.686449 0.00976576 0.00970388 2.46027e-05 0.00974732 1.71571e-07 272.817 
-0.31 -0.55 -0.381328 0.941594 0.00977428 0.00970729 1.87134e-05 0.00974235 1.71429e-07 272.904 
-0.29 -0.55 -0.515212 0.675436 0.00976246 0.00969561 2.27465e-05 0.00973217 1.71257e-07 272.893 
-0.33 -0.53 -0.316947 1.05795 0.00977217 0.00969697 1.47233e-05 0.00973556 1.71292e-07 272.932 
-0.27 -0.55 -0.413141 0.553153 0.00976579 0.0097108 2.00102e-05 0.00973975 1.71371e-07 272.923 
-0.31 -0.53 -0.364868 0.81633 0.00977318 0.00970318 2.39636e-05 0.00974099 1.71487e-07 272.773 
-0.29 -0.53 -0.261959 0.683867 0.00978331 0.00969994 1.95684e-05 0.00974791 1.71487e-07 272.967 
-0.33 -0.51 -0.258218 0.906185 0.00976213 0.00969253 1.60058e-05 0.00972965 1.71133e-07 273.019 
-0.27 -0.53 -0.426794 0.744444 0.00977986 0.00971222 2.29839e-05 0.00974521 1.71494e-07 272.88 
-0.31 -0.51 -0.282952 0.879787 0.00976403 0.0096993 1.68404e-05 0.00972854 1.71291e-07 272.737 
-0.29 -0.51 -0.490621 0.82792 0.00975884 0.00970011 2.38791e-05 0.00973778 1.71452e-07 272.739 
-0.27 -0.51 -0.585407 0.959306 0.00975544 0.00970416 2.75119e-05 0.00973656 1.71335e-07 272.891 
-0.33 -0.65 -0.323371 0.476525 0.00976852 0.00970419 1.82176e-05 0.00973765 1.71289e-07 272.995 
-0.31 -0.65 -0.269835 0.584664 0.00976637 0.00971277 1.53106e-05 0.00974092 1.71325e-07 273.03 
-0.29 -0.65 -0.432807 0.540554 0.00975968 0.00970368 1.53937e-05 0.00973132 1.71174e-07 273.002 
-0.33 -0.63 -0.299504 0.524349 0.00976196 0.00970778 9.0542e-06 0.00974023 1.71388e-07 272.91 
-0.27 -0.65 -0.457343 0.448634 0.0097711 0.00972524 1.16403e-05 0.00974754 1.71495e-07 272.944 
-0.31 -0.63 -0.452167 0.684689 0.00976212 0.0097042 1.80784e-05 0.00973641 1.71263e-07 273.002 
-0.25 -0.65 -0.530383 0.417821 0.00976431 0.00971756 1.3354e-05 0.00974319 1.71472e-07 272.859 
-0.29 -0.63 -0.482131 0.464409 0.00977146 0.00971928 1.23096e-05 0.00974558 1.71521e-07 272.848 
-0.27 -0.63 -0.435371 0.511412 0.00976072 0.00971585 1.36941e-05 0.0097389 1.71482e-07 272.723 
-0.31 -0.61 -0.439354 0.616585 0.0097726 0.00971018 1.26412e-05 0.00974526 1.71571e-07 272.76 
-0.49 -0.67 0.0647973 0.446796 0.00976585 0.00971707 -6.28311e-06 0.00974122 1.71469e-07 272.808 
-0.47 -0.67 0.0363307 0.41346 0.009764 0.00972147 -2.92045e-07 0.00974361 1.71507e-07 272.814 
-0.45 -0.67 0.106891 0.548387 0.00976158 0.00971404 2.92907e-06 0.00974463 1.71492e-07 272.868 
-0.43 -0.67 -0.0752548 0.61103 0.00976868 0.00970708 5.3677e-06 0.00974214 1.71538e-07 272.724 