ITEM: TIMESTEP
829000
ITEM: NUMBER OF CELLS
5000
ITEM: BOX BOUNDS ss ss pp
-0.5 0.5
-1 1
-0.5 0.5
ITEM: CELLS xc yc f_U[*] f_V[*] f_Tau[1] f_Tau[2] f_Tau[3] f_Press[*] f_Mrho[*] f_Ttra[*] 
-0.49 -0.99 -0.330218 0.286088 0.00979088 0.00974702 2.16694e-05 0.00977795 1.71914e-07 273.128 
-0.47 -0.99 -0.275292 -0.159522 0.00976699 0.00972896 4.75855e-06 0.00975496 1.71468e-07 273.195 
-0.45 -0.99 -0.371337 -0.0724718 0.00975066 0.00973776 1.07079e-05 0.00974501 1.71362e-07 273.085 
-0.49 -0.97 0.121667 0.283743 0.00972291 0.00973955 3.05485e-05 0.00972955 1.71199e-07 272.911 
-0.43 -0.99 -0.46402 0.0840011 0.00972531 0.00972429 1.03557e-05 0.00974665 1.71349e-07 273.152 
-0.47 -0.97 -0.101078 0.0843718 0.0097124 0.00973268 2.65558e-05 0.00973557 1.71354e-07 272.834 
-0.41 -0.99 -0.343894 -0.094673 0.00970491 0.00972127 3.84265e-06 0.00972512 1.7105e-07 273.024 
-0.45 -0.97 0.0489145 -0.0237021 0.00971796 0.00974291 7.88362e-06 0.00973838 1.71529e-07 272.634 
-0.49 -0.95 0.296225 0.00998222 0.00971489 0.00972632 -7.24014e-07 0.00973096 1.71297e-07 272.795 
-0.39 -0.99 -0.214008 -0.460167 0.00970729 0.00972888 -1.84213e-05 0.00971676 1.7061e-07 273.494 
-0.43 -0.97 -0.0686384 0.334733 0.00973739 0.00972373 5.54224e-06 0.00973826 1.71088e-07 273.333 
-0.47 -0.95 0.529078 0.448936 0.00974171 0.00974137 7.54116e-06 0.00974019 1.71829e-07 272.207 
-0.37 -0.99 -0.00666541 0.248577 0.0097167 0.00972122 1.43883e-05 0.0097237 1.71029e-07 273.019 
-0.41 -0.97 -0.283618 -0.174366 0.00973911 0.00974045 -1.91683e-07 0.00974818 1.71066e-07 273.647 
-0.45 -0.95 0.407947 -0.218818 0.00976641 0.00975849 1.53006e-05 0.00976863 1.72033e-07 272.679 
-0.49 -0.93 0.222849 -0.245995 0.0097618 0.0097244 3.79421e-06 0.00975048 1.71529e-07 272.972 
-0.35 -0.99 -0.0483631 -0.0744874 0.00969664 0.00966045 8.48037e-07 0.00967687 1.70601e-07 272.385 
-0.39 -0.97 0.05346 -0.319379 0.00970992 0.00972357 1.10188e-05 0.00972074 1.71113e-07 272.802 
-0.43 -0.95 0.397452 0.436168 0.00976301 0.0097187 3.19022e-06 0.00973664 1.71236e-07 273.052 
-0.47 -0.93 0.437033 0.163424 0.00977036 0.00976147 5.70777e-07 0.00977095 1.71865e-07 273.011 
-0.33 -0.99 0.155556 0.0423167 0.00970336 0.00972207 1.0843e-05 0.00971413 1.70951e-07 272.874 
-0.37 -0.97 -0.127899 -0.0993894 0.0096919 0.00970697 1.93175e-05 0.00969368 1.70614e-07 272.838 
-0.41 -0.95 0.13443 -0.222379 0.00975874 0.00972772 5.41495e-06 0.00974443 1.71418e-07 272.981 
-0.45 -0.93 0.554964 0.11799 0.00974946 0.00974708 -1.21878e-05 0.00973599 1.71497e-07 272.617 
-0.49 -0.91 0.0942832 -0.501773 0.00979135 0.00975182 3.37178e-06 0.0097735 1.71372e-07 273.867 
-0.35 -0.97 0.0279955 -0.234486 0.00970073 0.00968514 3.73671e-06 0.00969333 1.70356e-07 273.24 
-0.39 -0.95 0.100511 -0.636886 0.00975653 0.00972852 1.68197e-05 0.00973066 1.71261e-07 272.843 
-0.43 -0.93 0.55698 0.232684 0.00975827 0.00971048 2.16818e-06 0.0097204 1.70923e-07 273.094 
-0.47 -0.91 -0.145922 0.130035 0.00977846 0.00975028 -2.21881e-06 0.00975615 1.71774e-07 272.742 
-0.33 -0.97 0.110283 -0.228414 0.0097062 0.00969882 5.59813e-06 0.00970304 1.71042e-07 272.418 
-0.37 -0.95 0.10887 0.259458 0.00976804 0.00970869 2.26891e-05 0.00974203 1.71378e-07 272.976 
-0.41 -0.93 0.334641 0.122368 0.0097605 0.00973887 3.21358e-05 0.00974077 1.71298e-07 273.068 
-0.45 -0.91 -0.115958 0.035043 0.0097819 0.00974439 1.07314e-05 0.00973538 1.71307e-07 272.903 
-0.49 -0.89 -0.137634 -0.212977 0.00980889 0.0097591 6.11675e-06 0.00977332 1.71618e-07 273.47 
-0.35 -0.95 -0.0833123 -0.134398 0.00975575 0.00969583 3.97235e-06 0.00973378 1.71687e-07 272.255 
-0.39 -0.93 -0.312851 -0.0657482 0.0097405 0.00970434 1.39707e-05 0.0097131 1.71057e-07 272.677 
-0.43 -0.91 -0.200197 0.242501 0.0097494 0.00970304 1.18086e-05 0.00971671 1.7076e-07 273.252 
-0.47 -0.89 0.0327279 0.171783 0.00979402 0.00976323 6.57523e-06 0.00976214 1.7196e-07 272.613 
-0.37 -0.93 -0.34416 0.0374767 0.00975197 0.00970686 3.56818e-06 0.00972919 1.71232e-07 272.848 
-0.41 -0.91 -0.363475 0.734157 0.00976498 0.00972366 1.15471e-05 0.00973577 1.71424e-07 272.728 
-0.45 -0.89 -0.263398 0.070615 0.0097801 0.00972182 4.70962e-06 0.00973895 1.7119e-07 273.19 
-0.49 -0.87 0.0248885 -0.163183 0.00973661 0.00973311 -5.69933e-06 0.00972465 1.714e-07 272.455 
-0.35 -0.93 -0.506835 0.294687 0.0097625 0.00971045 1.53077e-05 0.00972393 1.71399e-07 272.436 
-0.39 -0.91 -0.511056 -0.084252 0.00977907 0.00971991 1.92766e-05 0.00974883 1.71399e-07 273.133 
-0.43 -0.89 -0.409322 0.488237 0.00979677 0.00971614 1.94146e-05 0.00976331 1.71466e-07 273.432 
-0.47 -0.87 0.178818 0.416808 0.00973804 0.00976005 4.47735e-06 0.00974387 1.71608e-07 272.661 
-0.37 -0.91 -0.294019 0.0395512 0.0097535 0.00971194 1.48622e-05 0.00973254 1.71466e-07 272.57 
-0.41 -0.89 -0.438588 0.665364 0.00978402 0.00970373 9.09723e-06 0.00975442 1.71799e-07 272.654 
-0.45 -0.87 -0.179543 0.273476 0.0097596 0.00970303 4.62423e-06 0.0097511 1.7167e-07 272.765 
-0.49 -0.85 -0.0235853 -0.0590631 0.0097747 0.00972297 -1.10905e-05 0.00974394 1.71728e-07 272.472 
-0.35 -0.91 -0.273284 0.455034 0.00974482 0.00970036 -1.06125e-06 0.00971502 1.7112e-07 272.63 
-0.39 -0.89 -0.510329 0.151235 0.00977611 0.00972315 2.85414e-05 0.00975987 1.71643e-07 273.053 
-0.43 -0.87 -0.186343 0.489702 0.00975252 0.00973217 2.03897e-05 0.00975984 1.71859e-07 272.711 
-0.47 -0.85 0.020673 0.350728 0.00979047 0.00975297 1.22241e-05 0.00977887 1.71962e-07 273.078 
-0.33 -0.91 -0.491583 0.164204 0.00976129 0.0097063 2.31864e-06 0.00972315 1.71386e-07 272.434 
-0.37 -0.89 -0.531211 -0.290782 0.00977945 0.00972827 2.18936e-05 0.00975985 1.71597e-07 273.127 
-0.41 -0.87 -0.202889 0.82416 0.00975658 0.00971157 1.84219e-05 0.00975037 1.71661e-07 272.76 
-0.45 -0.85 -0.202399 0.464573 0.00977502 0.00970106 1.26215e-05 0.00974147 1.71308e-07 273.073 
-0.35 -0.89 -0.528899 0.649201 0.00978607 0.00971775 2.50663e-06 0.00974125 1.7158e-07 272.633 
-0.39 -0.87 -0.444907 -0.14525 0.00977541 0.00972273 8.37574e-07 0.00974281 1.71654e-07 272.558 
-0.43 -0.85 -0.250118 0.613262 0.00978756 0.00972031 -1.48371e-06 0.00973827 1.71581e-07 272.548 
-0.37 -0.87 -0.428365 -0.086957 0.00978451 0.00973722 3.57393e-06 0.0097608 1.71956e-07 272.583 
-0.41 -0.85 -0.400279 0.961029 0.00979351 0.00972072 6.29153e-06 0.00975213 1.71814e-07 272.566 
-0.35 -0.87 -0.0804219 0.415305 0.00979201 0.00972653 1.62767e-05 0.00976003 1.71684e-07 272.993 
-0.39 -0.85 -0.666172 0.34381 0.00977428 0.00973499 4.95367e-06 0.00974434 1.71793e-07 272.382 
-0.33 -0.87 -0.0324752 0.362933 0.00977605 0.00970134 1.21556e-05 0.00973602 1.71287e-07 272.952 
-0.37 -0.85 -1.09747 -0.672817 0.00977953 0.00972046 1.6844e-05 0.00976689 1.72076e-07 272.562 
-0.35 -0.85 -0.728298 0.0936481 0.00976746 0.00972399 1.88888e-05 0.00975572 1.71654e-07 272.921 
-0.33 -0.85 -0.815043 0.730465 0.00975856 0.00970578 2.45046e-05 0.009738 1.71511e-07 272.652 
-0.31 -0.99 0.0686186 0.0697017 0.00970016 0.00967083 3.67523e-06 0.00968347 1.70769e-07 272.303 
-0.29 -0.99 -0.485837 0.364672 0.00970614 0.00969756 -5.17067e-06 0.00969464 1.71e-07 272.248 
-0.27 -0.99 -0.321815 -0.580092 0.00974797 0.00971718 -7.89293e-07 0.00972711 1.71282e-07 272.711 
-0.31 -0.97 -0.418102 0.389378 0.00972614 0.00969992 -9.12436e-06 0.00971986 1.7155e-07 272.082 
-0.29 -0.97 -0.218046 0.231332 0.00973669 0.00970517 1.40501e-06 0.00973613 1.71464e-07 272.674 
-0.33 -0.95 -0.298286 0.0417332 0.00974948 0.00969821 -4.28963e-06 0.00972065 1.71296e-07 272.508 
-0.27 -0.97 0.262169 -0.624027 0.00971349 0.00968937 -1.70627e-06 0.00970728 1.7147e-07 271.857 
-0.31 -0.95 -0.163888 0.707546 0.00974382 0.0097043 -1.54712e-06 0.00971846 1.71567e-07 272.016 
-0.29 -0.95 -0.0308664 -0.540754 0.00973319 0.00968924 -9.6056e-07 0.00971641 1.71737e-07 271.689 
-0.33 -0.93 -0.373779 0.0716013 0.00976318 0.00969961 2.77734e-06 0.00972726 1.71377e-07 272.564 
-0.27 -0.95 -0.33095 -0.257566 0.00973604 0.00972086 -1.25263e-06 0.00972574 1.71482e-07 272.355 
-0.31 -0.93 -0.330984 0.186994 0.00975043 0.00970341 5.0074e-07 0.00971847 1.71409e-07 272.268 
-0.29 -0.93 -0.662876 -0.0697428 0.00975724 0.00969179 2.01457e-06 0.00973084 1.71995e-07 271.684 
-0.27 -0.93 -0.230048 -0.42799 0.0097863 0.00973349 -1.18182e-05 0.00977475 1.72124e-07 272.705 
-0.31 -0.91 -0.31498 0.302468 0.00977159 0.00970235 1.31912e-05 0.00974022 1.71577e-07 272.609 
-0.29 -0.91 -0.012015 -0.406473 0.00975233 0.00971231 -1.83479e-05 0.00972393 1.71512e-07 272.257 
-0.33 -0.89 -0.461296 0.0632342 0.00977096 0.00970469 -2.80948e-06 0.00973786 1.71272e-07 273.029 
-0.27 -0.91 -0.66203 -0.12162 0.00973512 0.0097123 -1.19269e-05 0.00972798 1.71566e-07 272.284 
-0.31 -0.89 -0.300356 -0.113525 0.00977889 0.00969047 -5.16669e-06 0.00973732 1.71515e-07 272.626 
-0.29 -0.89 -0.181721 -0.230935 0.00979353 0.00973968 -4.16202e-06 0.00976167 1.71517e-07 273.304 
-0.27 -0.89 -0.372379 0.223282 0.00978069 0.0097065 -8.67931e-06 0.0097524 1.71817e-07 272.568 
-0.31 -0.87 -0.402738 -0.226405 0.00974735 0.00970002 -5.07667e-06 0.00972156 1.71133e-07 272.793 
-0.29 -0.87 -0.722726 -0.172494 0.00974034 0.00973446 1.53123e-06 0.00974146 1.71486e-07 272.788 
-0.27 -0.87 -0.534647 0.500842 0.00975184 0.00971404 -3.58488e-07 0.00972844 1.71328e-07 272.674 
-0.31 -0.85 -0.628255 -0.136198 0.00976936 0.00971752 6.65354e-06 0.00974505 1.71841e-07 272.325 
-0.29 -0.85 -0.52508 0.140578 0.00975653 0.00972622 9.52307e-06 0.00975046 1.718e-07 272.541 
-0.27 -0.85 -0.598107 0.429149 0.00974633 0.009708 4.02555e-06 0.00973788 1.70955e-07 273.535 
-0.25 -0.99 -0.233105 0.101366 0.00975256 0.0097522 1.57569e-05 0.00975867 1.71896e-07 272.618 
-0.25 -0.97 -0.16081 0.204584 0.00974193 0.00975969 -3.61297e-06 0.00974829 1.71487e-07 272.977 
-0.25 -0.95 -0.334195 0.308839 0.00972549 0.0097409 -8.76742e-06 0.00973999 1.71592e-07 272.578 
-0.25 -0.93 -0.417712 0.18494 0.00977232 0.00972722 -3.63144e-07 0.00974157 1.71606e-07 272.6 
-0.25 -0.91 -0.344998 0.130854 0.00974274 0.00972806 8.61308e-08 0.00973895 1.7149e-07 272.712 
-0.25 -0.89 -0.669611 -0.0128142 0.00978141 0.00971982 -2.62308e-06 0.00975255 1.7153e-07 273.029 
-0.25 -0.87 -1.00859 0.0675969 0.0097398 0.00970307 9.41297e-06 0.00972158 1.70914e-07 273.143 
-0.25 -0.85 -0.208594 0.435464 0.00975896 0.00970024 -3.31126e-06 0.00973941 1.71141e-07 273.28 
-0.25 -0.83 -0.196467 0.00934661 0.00976203 0.0096938 2.39757e-06 0.00974424 1.71106e-07 273.472 
-0.33 -0.81 0.308771 0.21313 0.00978961 0.00970793 6.94986e-06 0.0097404 1.71649e-07 272.5 
-0.31 -0.81 0.0321915 0.225994 0.00979676 0.00972314 8.83781e-06 0.0097605 1.71335e-07 273.563 
-0.29 -0.81 -0.108163 -0.319613 0.00978109 0.009726 -2.31677e-06 0.00976245 1.71597e-07 273.2 
-0.27 -0.81 0.118027 0.378212 0.00978834 0.0097203 1.83107e-05 0.00976309 1.71531e-07 273.322 
-0.31 -0.79 0.375829 0.543134 0.00977606 0.00973838 3.29781e-06 0.00974633 1.71658e-07 272.652 
-0.29 -0.79 -0.0207471 0.119912 0.00977684 0.00971508 2.89267e-06 0.00972502 1.71549e-07 272.227 
-0.33 -0.77 -0.130427 0.19823 0.00975854 0.0097201 1.51422e-05 0.0097315 1.71416e-07 272.62 
-0.27 -0.79 -0.648516 0.404359 0.00975315 0.00967838 6.74372e-06 0.00971156 1.70883e-07 272.911 
-0.31 -0.77 -0.0834717 0.498751 0.00974429 0.00972598 -3.24577e-06 0.00973155 1.7156e-07 272.394 
-0.29 -0.77 -0.185265 0.960494 0.00975992 0.00971378 1.41065e-05 0.00973714 1.71727e-07 272.285 
-0.27 -0.77 -0.548561 0.514154 0.00976591 0.00968401 1.41956e-05 0.00973475 1.71406e-07 272.727 
-0.31 -0.75 -0.0089993 0.913957 0.00976475 0.00973147 1.37628e-06 0.00976156 1.72085e-07 272.4 
-0.29 -0.75 -0.585101 1.23572 0.00975432 0.00971453 1.48207e-05 0.00972704 1.71424e-07 272.484 
-0.27 -0.75 -0.772854 0.687803 0.0097618 0.00968169 1.58821e-05 0.0097204 1.71362e-07 272.395 
-0.49 -0.83 -0.173142 0.0414181 0.00976168 0.00972712 -2.63785e-06 0.00975752 1.7181e-07 272.723 
-0.47 -0.83 0.0919531 0.388154 0.00975877 0.0097232 -9.10684e-06 0.00975201 1.7166e-07 272.807 
-0.45 -0.83 0.349983 0.383303 0.00976724 0.00972234 4.57646e-06 0.00975798 1.71498e-07 273.232 
-0.49 -0.81 0.0774496 -0.196397 0.00977596 0.00973954 -1.91665e-06 0.00977738 1.71852e-07 273.211 
-0.43 -0.83 -0.0585663 0.835417 0.00974518 0.00969036 8.35038e-06 0.00971623 1.71141e-07 272.63 
-0.47 -0.81 0.0601438 0.220319 0.0097532 0.00971862 -4.21037e-06 0.00976286 1.71702e-07 273.044 
-0.45 -0.81 0.0874375 0.606934 0.00976707 0.00970577 1.29985e-05 0.0097438 1.7165e-07 272.594 
-0.49 -0.79 -0.244428 0.122671 0.00974747 0.00972557 -3.9882e-07 0.00973925 1.71598e-07 272.548 
-0.43 -0.81 -0.138036 0.9288 0.00980125 0.00970661 4.04367e-06 0.00974787 1.71458e-07 273.012 
-0.47 -0.79 -0.226368 0.0575316 0.00976041 0.00972293 -3.53279e-06 0.00973669 1.71581e-07 272.504 
-0.41 -0.81 -0.291961 1.02829 0.00976452 0.00969877 1.71186e-05 0.00972953 1.71546e-07 272.359 
-0.45 -0.79 -0.659338 0.618236 0.00973792 0.00970302 -5.25446e-06 0.0097106 1.714e-07 272.06 
-0.49 -0.77 0.149835 0.0754322 0.00974609 0.00973701 4.66453e-06 0.0097302 1.71246e-07 272.855 
-0.39 -0.81 -0.0517263 0.420524 0.00975548 0.00970758 1.25593e-05 0.00974879 1.71805e-07 272.486 
-0.43 -0.79 -0.623348 0.995751 0.00974959 0.00969217 9.61243e-07 0.00972189 1.71359e-07 272.442 
-0.47 -0.77 -0.296619 0.376388 0.0097328 0.00970384 3.04064e-06 0.00970182 1.71038e-07 272.39 
-0.37 -0.81 0.53542 -0.349105 0.00977143 0.00973597 2.65626e-06 0.00974704 1.71734e-07 272.55 
-0.41 -0.79 -0.348773 0.540807 0.00978327 0.00970351 7.51789e-06 0.00974544 1.71875e-07 272.282 
-0.45 -0.77 -1.03415 1.31635 0.00975703 0.00972451 -8.42098e-06 0.00973447 1.71668e-07 272.303 
-0.35 -0.81 0.34581 0.200685 0.00977862 0.00972626 -1.70275e-06 0.00976162 1.71782e-07 272.882 
-0.39 -0.79 0.036249 -0.0382391 0.00978492 0.00971174 -1.04896e-06 0.00974321 1.71836e-07 272.281 
-0.43 -0.77 -0.986305 0.378247 0.00972774 0.00967306 -1.10037e-05 0.0096989 1.71222e-07 272.016 
-0.37 -0.79 -0.0936183 -0.309932 0.00980155 0.00974722 1.1799e-05 0.00975743 1.71957e-07 272.487 
-0.41 -0.77 -0.33154 0.172182 0.00971835 0.0096907 5.4558e-06 0.00970573 1.71393e-07 271.935 
-0.35 -0.79 0.00248054 0.311238 0.00978991 0.00971639 5.72444e-06 0.00975135 1.71815e-07 272.542 
-0.39 -0.77 -0.19949 -0.103465 0.00974326 0.00972796 2.9713e-06 0.00974921 1.71663e-07 272.724 
-0.43 -0.75 0.106616 0.413063 0.0097441 0.00967139 6.30019e-06 0.00971669 1.71136e-07 272.651 
-0.33 -0.79 0.155534 0.143698 0.00976908 0.00969932 3.20063e-06 0.00972659 1.71477e-07 272.386 
-0.37 -0.77 0.268982 -0.206525 0.00974366 0.00971785 -5.67303e-07 0.00972645 1.7128e-07 272.696 
-0.41 -0.75 -0.0446085 0.249724 0.00975097 0.00971115 4.99537e-07 0.00972943 1.71444e-07 272.518 
-0.35 -0.77 0.190557 0.270019 0.00975647 0.0097188 7.20697e-06 0.00973741 1.70898e-07 273.612 
-0.39 -0.75 0.0593536 -0.0948103 0.00974574 0.00969738 -8.53492e-06 0.0097345 1.71498e-07 272.574 
-0.49 -0.75 -0.0720095 0.231919 0.00972921 0.00973747 1.01677e-05 0.00974102 1.70869e-07 273.761 
-0.47 -0.75 -0.188212 0.706233 0.00973931 0.00973231 -6.13383e-06 0.00972237 1.71196e-07 272.715 
-0.45 -0.75 0.0293338 1.01358 0.00973367 0.00969576 -6.8904e-06 0.00970787 1.71247e-07 272.227 
-0.49 -0.73 0.00488489 0.348163 0.00975598 0.00972113 6.79859e-07 0.00974561 1.70927e-07 273.797 
-0.47 -0.73 -0.255983 0.995815 0.00976248 0.00975636 -4.01813e-06 0.00976439 1.71338e-07 273.666 
-0.45 -0.73 -0.0578245 0.503884 0.00977008 0.00968591 -1.28095e-05 0.00972401 1.71411e-07 272.419 
-0.49 -0.71 -0.256997 0.453834 0.00982381 0.00974575 7.79677e-06 0.00979309 1.71838e-07 273.672 
-0.43 -0.73 0.370982 0.458618 0.00976035 0.00968342 -1.12296e-05 0.00972703 1.71335e-07 272.625 
-0.47 -0.71 0.0251369 0.526433 0.00980781 0.00974776 -5.72325e-06 0.00976925 1.71528e-07 273.499 
-0.37 -0.75 -0.307743 -0.489126 0.00974165 0.00972746 1.26063e-05 0.00971199 1.71522e-07 271.906 
-0.41 -0.73 0.326945 0.320552 0.00977551 0.00969381 -1.55611e-05 0.00973678 1.71311e-07 272.935 
-0.45 -0.71 0.445356 0.369721 0.00978483 0.00968455 -6.56523e-06 0.00973564 1.71593e-07 272.455 
-0.49 -0.69 -0.119101 0.575476 0.00975957 0.00971891 -1.09564e-05 0.00974331 1.71211e-07 273.278 
-0.35 -0.75 -0.190219 0.125373 0.00974928 0.00973 1.03815e-05 0.0097377 1.71355e-07 272.892 
-0.39 -0.73 0.380684 -0.361359 0.0097851 0.00969466 1.29965e-05 0.00973541 1.71268e-07 272.965 
-0.43 -0.71 -0.0784389 0.0535571 0.00978034 0.00970403 -8.95166e-06 0.00974061 1.7181e-07 272.249 
-0.47 -0.69 0.136902 0.0973686 0.00977033 0.00973819 1.71225e-05 0.00975911 1.71533e-07 273.208 
-0.37 -0.73 0.388195 -0.184491 0.00978983 0.00971696 9.78318e-06 0.00973578 1.71601e-07 272.447 
-0.41 -0.71 0.588462 0.620743 0.00977018 0.00966518 -1.34668e-05 0.00973279 1.71748e-07 272.129 
-0.45 -0.69 0.191582 0.550731 0.00978128 0.00970123 2.14618e-06 0.00975154 1.71812e-07 272.553 
-0.35 -0.73 -0.13422 0.183551 0.00977866 0.00972626 8.00954e-06 0.00975881 1.71716e-07 272.908 
-0.39 -0.71 0.16511 -0.0666683 0.00977051 0.00970054 3.44642e-06 0.0097363 1.71555e-07 272.534 
-0.43 -0.69 0.0707242 0.334374 0.00979482 0.00971363 1.7206e-06 0.00975662 1.7233e-07 271.874 
-0.33 -0.73 -0.189342 -0.0686314 0.0097857 0.00973101 1.17082e-05 0.00977057 1.72164e-07 272.527 
-0.37 -0.71 -0.127196 -0.253107 0.0097613 0.00971305 9.33717e-06 0.00973866 1.71548e-07 272.611 
-0.41 -0.69 0.0500642 -0.0320949 0.00976968 0.00967039 1.1224e-06 0.00971813 1.7158e-07 271.986 
-0.35 -0.71 -0.518826 0.436514 0.00975482 0.0097165 8.91591e-06 0.00974452 1.71538e-07 272.791 
-0.39 -0.69 0.256173 0.271573 0.00974777 0.0096868 5.41574e-06 0.00972031 1.71644e-07 271.945 
-0.37 -0.69 0.0143909 0.0947474 0.009762 0.00970261 6.61472e-06 0.00974585 1.71656e-07 272.641 
-0.35 -0.69 0.25653 0.424978 0.00977058 0.00971923 1.70274e-05 0.00973322 1.71361e-07 272.756 
-0.35 -0.67 -0.184304 0.183519 0.00977291 0.00974708 1.27422e-06 0.00974744 1.71349e-07 273.175 
-0.33 -0.67 -0.142679 0.36904 0.00974598 0.00971789 2.78442e-06 0.00974526 1.71445e-07 272.959 
-0.33 -0.75 0.360896 0.282729 0.00975333 0.00971693 1.3803e-06 0.00974623 1.71876e-07 272.302 
-0.31 -0.73 -0.309119 1.30836 0.00978199 0.00973113 -1.59898e-06 0.00974644 1.71831e-07 272.38 
-0.29 -0.73 0.170107 1.13042 0.00976524 0.00969723 1.2956e-05 0.00973555 1.71357e-07 272.828 
-0.33 -0.71 -0.696598 -0.20275 0.00975994 0.00973594 5.50772e-06 0.00974469 1.7156e-07 272.761 
-0.27 -0.73 -0.0123703 1.13332 0.00975651 0.00969404 2.51669e-05 0.00973626 1.71196e-07 273.105 
-0.31 -0.71 -0.22014 0.854555 0.00975237 0.00973433 2.39602e-05 0.00975845 1.72027e-07 272.405 
-0.29 -0.71 -0.0777451 0.799984 0.00974774 0.00967894 1.50113e-05 0.00973213 1.71483e-07 272.531 
-0.33 -0.69 -0.0842274 -0.157666 0.00977552 0.00973063 -1.54235e-05 0.00976236 1.71796e-07 272.88 
-0.27 -0.71 0.456574 1.15762 0.0097811 0.00969418 3.07816e-06 0.00974464 1.71367e-07 273.067 
-0.31 -0.69 -0.424415 0.474062 0.00978278 0.00971862 2.23169e-05 0.00975208 1.71874e-07 272.469 
-0.29 -0.69 -0.32355 0.584355 0.00977216 0.00970912 1.54956e-05 0.00975467 1.71832e-07 272.608 
-0.27 -0.69 -0.209507 1.17795 0.00974856 0.00968755 7.50042e-06 0.00973276 1.71079e-07 273.193 
-0.31 -0.67 -0.243748 0.717783 0.00974809 0.00968472 8.77176e-06 0.00972169 1.71177e-07 272.726 
-0.29 -0.67 -0.531559 0.731728 0.00977328 0.00972578 2.39181e-05 0.00976022 1.7165e-07 273.052 
-0.41 -0.83 -0.0824699 0.714244 0.00976393 0.00972438 1.28273e-06 0.00974064 1.71687e-07 272.446 
-0.39 -0.83 -0.10128 0.803243 0.00976651 0.00972329 2.96774e-05 0.00974015 1.71633e-07 272.518 
-0.37 -0.83 -0.380391 -0.0771085 0.00974305 0.00971699 1.84216e-05 0.00974094 1.71597e-07 272.596 
-0.35 -0.83 -0.494345 -0.165351 0.00976654 0.00972632 1.83414e-05 0.00974256 1.71564e-07 272.695 
-0.33 -0.83 -0.408257 0.52501 0.00978215 0.0097085 2.80261e-06 0.00974721 1.7133e-07 273.198 
-0.31 -0.83 0.00612115 -0.391416 0.00978324 0.00970603 1.4733e-05 0.00976038 1.71643e-07 273.068 
-0.29 -0.83 -0.0215076 -0.0757103 0.00978611 0.00973909 9.52618e-06 0.00977986 1.71715e-07 273.498 
-0.27 -0.83 -0.156077 0.361541 0.00977754 0.00971411 1.56914e-05 0.00975439 1.71476e-07 273.165 
-0.27 -0.67 -0.685638 0.829881 0.0097701 0.00969685 1.71923e-05 0.00975237 1.71556e-07 272.982 
-0.25 -0.67 -0.354036 0.734705 0.00978121 0.0096904 5.49264e-06 0.00975002 1.71586e-07 272.869 
-0.25 -0.81 -0.185993 0.368904 0.00978024 0.00971435 1.82577e-05 0.00975766 1.71452e-07 273.296 
-0.25 -0.79 -0.817332 0.295681 0.0097909 0.00974396 2.61972e-05 0.00975839 1.71388e-07 273.419 
-0.35 -0.55 0.0341205 0.90491 0.00979953 0.00971083 1.69318e-05 0.00974946 1.71577e-07 272.868 
-0.39 -0.53 -0.15911 1.25245 0.00977525 0.00969204 9.2046e-06 0.00974405 1.71316e-07 273.132 
-0.37 -0.57 0.189059 1.13636 0.00978141 0.00970409 6.37921e-06 0.00974219 1.7129e-07 273.121 
-0.41 -0.55 0.129979 1.06506 0.00975698 0.0097155 -1.58652e-05 0.00974558 1.71502e-07 272.879 
-0.45 -0.53 0.214788 0.479985 0.00978065 0.00969022 -7.08752e-06 0.0097265 1.71267e-07 272.718 
-0.35 -0.57 0.0411913 0.780458 0.00975857 0.00967686 3.07919e-05 0.00971781 1.71128e-07 272.696 
-0.39 -0.55 -0.264337 0.967215 0.00975543 0.00969799 7.94576e-06 0.00974599 1.71452e-07 272.97 
-0.43 -0.53 -0.303012 0.556605 0.00978509 0.0096964 5.60845e-06 0.00973999 1.71259e-07 273.109 
-0.47 -0.51 -0.379285 0.387089 0.00979507 0.00969657 7.75803e-06 0.00973717 1.71511e-07 272.629 
-0.37 -0.55 -0.0942008 1.08596 0.00974737 0.00966891 -2.14781e-06 0.0097148 1.70844e-07 273.063 
-0.41 -0.53 -0.407983 0.605082 0.00978248 0.00971381 6.30308e-06 0.00974423 1.7137e-07 273.051 
-0.45 -0.51 -0.491561 0.560375 0.00980072 0.00969434 7.79011e-06 0.00974913 1.71698e-07 272.665 
-0.37 -0.53 -0.231452 1.09134 0.00976308 0.00969116 1.14325e-05 0.00974761 1.71657e-07 272.689 
-0.41 -0.51 -0.609953 0.678722 0.00979019 0.00970841 4.96352e-06 0.00974948 1.71453e-07 273.066 
-0.35 -0.53 -0.173139 0.923279 0.00974413 0.00968218 -1.44479e-05 0.00971449 1.71371e-07 272.216 
-0.39 -0.51 -0.468633 0.901407 0.00977944 0.00968157 1.94472e-06 0.00972568 1.71145e-07 272.889 
-0.37 -0.51 -0.565109 1.16933 0.0098043 0.00969706 1.9013e-05 0.00975776 1.71813e-07 272.725 
-0.35 -0.51 -0.561153 0.665329 0.00979504 0.00969001 2.66235e-06 0.00974375 1.71527e-07 272.788 
-0.49 -0.65 0.0577197 0.329242 0.00977079 0.00970077 1.59527e-05 0.00973774 1.71331e-07 272.93 
-0.47 -0.65 -0.284908 0.428002 0.00978 0.00974136 1.78511e-05 0.00976693 1.71882e-07 272.871 
-0.45 -0.65 -0.0719391 0.441677 0.00976561 0.00974482 1.29163e-06 0.00976571 1.72246e-07 272.261 
-0.49 -0.63 -0.0058411 0.257643 0.00975156 0.00970287 1.80771e-05 0.00974496 1.71708e-07 272.534 
-0.43 -0.65 -0.0290994 0.645734 0.00973787 0.00967076 1.42862e-05 0.00971893 1.71271e-07 272.5 
-0.47 -0.63 0.134281 0.650505 0.00976701 0.00974081 4.10739e-06 0.00976828 1.72179e-07 272.438 
-0.41 -0.65 0.18471 0.43561 0.00975082 0.00967304 1.25461e-06 0.00971312 1.7096e-07 272.831 
-0.45 -0.63 -0.450224 0.579835 0.00979541 0.00974058 3.2441e-05 0.00976758 1.72269e-07 272.277 
-0.49 -0.61 -0.202461 0.398328 0.00979418 0.00971311 -4.56314e-06 0.00976378 1.71984e-07 272.622 
-0.39 -0.65 0.287281 0.290917 0.00975141 0.00970832 1.38037e-05 0.00972365 1.71248e-07 272.668 
-0.43 -0.63 -0.45058 0.487645 0.00977448 0.00968941 4.20933e-06 0.00973092 1.71234e-07 272.894 
-0.47 -0.61 -0.425089 0.612517 0.0097922 0.00973642 6.40046e-06 0.00978434 1.72256e-07 272.765 
-0.37 -0.65 -0.458288 0.00647798 0.00975664 0.00968869 -5.38441e-06 0.00972069 1.71129e-07 272.774 
-0.41 -0.63 -0.712684 0.389376 0.00977408 0.00966467 1.20949e-05 0.00972572 1.71121e-07 272.929 
-0.45 -0.61 0.107241 0.697448 0.00977789 0.00972806 -9.99897e-07 0.00977475 1.72165e-07 272.641 
-0.49 -0.59 -0.0490649 0.425296 0.00976046 0.00969061 -2.48352e-05 0.00974178 1.71651e-07 272.535 
-0.35 -0.65 -0.726523 0.231518 0.00976907 0.00975366 1.34141e-05 0.0097443 1.71499e-07 272.847 
-0.39 -0.63 -0.787878 0.441302 0.00978741 0.00972576 9.49857e-07 0.00974093 1.71442e-07 272.844 
-0.43 -0.61 0.0613906 0.801093 0.00980401 0.00969458 2.79858e-05 0.00976566 1.71622e-07 273.249 
-0.47 -0.59 -0.260991 0.646298 0.00979138 0.00972772 -9.07784e-06 0.00977859 1.71947e-07 273.094 
-0.37 -0.63 -0.791356 0.587918 0.00977255 0.00969614 -5.58209e-06 0.00972969 1.71512e-07 272.417 
-0.41 -0.61 -0.182748 0.639489 0.00981167 0.00969351 9.2014e-06 0.00975872 1.71477e-07 273.286 
-0.45 -0.59 -0.134953 0.0953195 0.0098064 0.0097234 1.00578e-05 0.0097822 1.72107e-07 272.941 
-0.49 -0.57 0.282742 0.370821 0.00978547 0.00970447 -1.7145e-05 0.00973464 1.71089e-07 273.229 
-0.35 -0.63 -0.969468 0.336178 0.00975411 0.00971624 7.7447e-06 0.00972332 1.71298e-07 272.58 
-0.39 -0.61 -0.363348 0.157576 0.00981688 0.00971059 -2.40392e-06 0.00976042 1.71685e-07 273.002 
-0.43 -0.59 0.284552 0.752986 0.00979523 0.00969691 3.23335e-06 0.0097532 1.71804e-07 272.612 
-0.47 -0.57 0.193615 0.526009 0.00977027 0.00970985 -1.07982e-05 0.00974339 1.71488e-07 272.838 
-0.37 -0.61 -0.473473 0.729304 0.00981258 0.00970751 1.69372e-05 0.00976708 1.71671e-07 273.211 
-0.41 -0.59 0.259415 0.902606 0.00979797 0.0097036 2.17604e-06 0.00975652 1.71435e-07 273.292 
-0.45 -0.57 0.172195 0.110656 0.00976301 0.00970058 -6.95423e-07 0.0097377 1.71462e-07 272.721 
-0.49 -0.55 -0.182226 0.234414 0.00977884 0.00971351 -8.9282e-06 0.00974795 1.7182e-07 272.439 
-0.35 -0.61 -0.502598 0.456565 0.00981141 0.00970312 1.06121e-05 0.00974431 1.71337e-07 273.105 
-0.39 -0.59 0.188293 0.720145 0.00978664 0.00966784 9.71709e-06 0.00973463 1.71286e-07 272.915 
-0.43 -0.57 0.0930876 0.541143 0.00977682 0.00969514 5.73327e-06 0.00974759 1.71179e-07 273.45 
-0.47 -0.55 0.154729 0.751115 0.00977285 0.00968776 -1.18472e-05 0.00972617 1.71774e-07 271.903 
-0.33 -0.61 -0.849337 0.386623 0.00980255 0.00968851 2.57854e-05 0.00975567 1.71488e-07 273.183 
-0.37 -0.59 -0.480925 0.616473 0.00979428 0.00974146 1.28289e-05 0.00976954 1.71634e-07 273.339 
-0.41 -0.57 0.134937 0.842712 0.00977335 0.0097121 2.43422e-05 0.00973993 1.71206e-07 273.192 
-0.45 -0.55 -0.0884813 -0.134474 0.00976218 0.00968755 -1.42285e-06 0.00970765 1.71062e-07 272.515 
-0.49 -0.53 0.128418 0.484154 0.00979337 0.00971692 1.36923e-05 0.00975323 1.71619e-07 272.906 
-0.35 -0.59 -0.780439 0.773279 0.00979113 0.00967738 1.4198e-05 0.00973601 1.71452e-07 272.691 
-0.39 -0.57 -0.153851 1.17912 0.00977422 0.00968314 -5.90794e-06 0.0097364 1.71255e-07 273.014 
-0.43 -0.55 0.0496005 0.508003 0.00976025 0.00969952 1.90187e-05 0.00974318 1.71551e-07 272.733 
-0.47 -0.53 0.151364 0.221081 0.00978611 0.00969121 8.33454e-06 0.0097295 1.71363e-07 272.649 
-0.29 -0.57 -0.358293 0.397431 0.00977047 0.00968611 1.87463e-05 0.00972637 1.71207e-07 272.809 
-0.33 -0.55 -0.465326 0.981634 0.00979137 0.00971152 4.79029e-06 0.00973564 1.71298e-07 272.925 
-0.29 -0.61 -0.786596 0.614513 0.00977634 0.00969343 3.61395e-06 0.0097361 1.71518e-07 272.588 
-0.33 -0.59 -0.622627 0.774106 0.00979621 0.00969696 2.63136e-05 0.00976058 1.71664e-07 273.04 
-0.27 -0.61 -0.924658 0.89612 0.00979877 0.00970181 2.12773e-05 0.00975374 1.71756e-07 272.703 
-0.31 -0.59 -1.24724 0.744596 0.0098009 0.00974376 1.98278e-05 0.00975997 1.71779e-07 272.841 
-0.29 -0.59 -0.889744 0.174741 0.00980056 0.00968224 1.97306e-05 0.00973141 1.71207e-07 272.952 
-0.33 -0.57 -0.306813 0.66147 0.00976542 0.00971141 -1.76554e-06 0.0097212 1.71157e-07 272.744 
-0.27 -0.59 -0.657139 0.943766 0.00978427 0.00970115 2.4026e-05 0.00974765 1.7126e-07 273.322 
-0.31 -0.57 -0.158826 0.658268 0.00977912 0.00972271 1.14754e-05 0.0097559 1.71536e-07 273.112 
-0.27 -0.57 -0.480628 0.303599 0.00978377 0.0096976 2.78992e-05 0.00975796 1.71649e-07 272.991 
-0.31 -0.55 -0.0602614 0.665386 0.00977923 0.00969092 2.50249e-05 0.00972907 1.70864e-07 273.434 
-0.29 -0.55 -0.359622 0.650809 0.00977322 0.00970837 3.60178e-05 0.00973245 1.71063e-07 273.211 
-0.33 -0.53 0.0749695 1.34107 0.00975549 0.00971458 1.55036e-05 0.00972261 1.70949e-07 273.116 
-0.27 -0.55 -0.371387 0.336711 0.00974835 0.00967356 3.48092e-05 0.00970922 1.71271e-07 272.227 
-0.31 -0.53 -0.277809 0.551954 0.00975922 0.00967698 2.1643e-05 0.00972263 1.70748e-07 273.438 
-0.29 -0.53 -0.261559 0.70994 0.00980199 0.00970029 3.8731e-05 0.00974941 1.71394e-07 273.157 
-0.33 -0.51 -0.246687 0.996165 0.00978926 0.00969521 2.01406e-05 0.00974167 1.71341e-07 273.025 
-0.27 -0.53 -0.193169 0.431327 0.00978985 0.00967942 3.67597e-05 0.0097285 1.71198e-07 272.883 
-0.31 -0.51 -0.0735745 0.668865 0.00977166 0.00967904 8.5238e-06 0.00971854 1.70878e-07 273.114 
-0.29 -0.51 -0.0518866 0.669606 0.00974632 0.00967091 2.6755e-05 0.00970957 1.70847e-07 272.913 
-0.27 -0.51 -0.0936142 0.698278 0.00978031 0.00969239 3.75743e-05 0.0097474 1.71312e-07 273.232 
-0.33 -0.65 -1.21495 0.121319 0.00976462 0.00971307 1.64862e-05 0.00974332 1.71203e-07 273.291 
-0.31 -0.65 -0.890186 0.904797 0.00975273 0.00969208 1.35175e-05 0.00973682 1.71229e-07 273.068 
-0.29 -0.65 -0.708101 0.556291 0.00974229 0.00970108 1.35902e-05 0.00973389 1.71379e-07 272.746 
-0.33 -0.63 -0.63488 0.291424 0.00975371 0.00971691 3.12108e-05 0.00973067 1.71068e-07 273.152 
-0.27 -0.65 -0.63403 0.709802 0.0097675 0.00972001 1.49854e-05 0.00974868 1.71587e-07 272.83 
-0.31 -0.63 -0.854886 0.526205 0.00974265 0.00968239 8.33256e-06 0.00971872 1.70898e-07 273.087 
-0.25 -0.65 -0.610436 0.276177 0.00975618 0.00968506 9.7706e-06 0.00972848 1.71323e-07 272.684 
-0.29 -0.63 -0.88299 0.366773 0.00977314 0.00971871 5.56572e-06 0.00973223 1.71333e-07 272.773 
-0.27 -0.63 -0.813291 0.809597 0.00974469 0.00969892 1.69884e-05 0.00972597 1.71683e-07 272.042 
-0.31 -0.61 -0.99453 0.567618 0.00979348 0.00972595 2.03906e-05 0.00976031 1.71621e-07 273.102 
-0.49 -0.67 0.0751057 0.557393 0.00978956 0.00969408 -5.40241e-06 0.0097431 1.7121e-07 273.274 
-0.47 -0.67 0.199497 -0.28393 0.00976881 0.0097439 5.55018e-06 0.00975932 1.71768e-07 272.84 
-0.45 -0.67 0.0832633 1.09467 0.00975149 0.00971543 2.48655e-06 0.00973723 1.71415e-07 272.783 
-0.43 -0.67 0.159043 0.349731 0.00977196 0.0096955 -6.0491e-06 0.00973176 1.71767e-07 272.071 