ITEM: TIMESTEP
963500
ITEM: NUMBER OF CELLS
5000
ITEM: BOX BOUNDS ss ss pp
-0.5 0.5
-1 1
-0.5 0.5
ITEM: CELLS xc yc f_U[*] f_V[*] f_Tau[1] f_Tau[2] f_Tau[3] f_Press[*] f_Mrho[*] f_Ttra[*] 
-0.49 -0.99 -0.0625168 0.131144 0.00975792 0.00972615 1.36221e-05 0.0097446 1.71614e-07 272.672 
-0.47 -0.99 -0.142495 -0.0846479 0.00974217 0.00971124 9.27369e-06 0.00973228 1.71419e-07 272.638 
-0.45 -0.99 -0.145146 0.0151141 0.00974272 0.00972672 6.25817e-06 0.00974004 1.71406e-07 272.875 
-0.49 -0.97 -0.0198799 0.108938 0.00974034 0.00971672 1.22103e-05 0.0097309 1.71315e-07 272.764 
-0.43 -0.99 -0.194296 -0.0448575 0.00973567 0.00972698 7.7107e-06 0.00973952 1.71333e-07 272.978 
-0.47 -0.97 -0.0689643 0.0840899 0.00974541 0.00971569 1.44255e-05 0.00973286 1.71334e-07 272.789 
-0.41 -0.99 -0.0304786 -0.0406107 0.00973065 0.00972192 5.22237e-06 0.00973031 1.71275e-07 272.812 
-0.45 -0.97 -0.0932294 -0.0291771 0.00974467 0.00972818 7.91518e-06 0.00974223 1.71397e-07 272.952 
-0.49 -0.95 0.046207 0.0675108 0.00973194 0.00970404 3.28578e-06 0.00972575 1.71122e-07 272.927 
-0.39 -0.99 -0.0837054 0.0755376 0.00973635 0.00972491 -2.84017e-06 0.00972807 1.70975e-07 273.228 
-0.43 -0.97 0.100486 0.0263985 0.00974756 0.0097273 6.63832e-06 0.00974181 1.71371e-07 272.982 
-0.47 -0.95 0.102317 0.15703 0.00974739 0.00972113 3.06612e-06 0.00973228 1.71262e-07 272.888 
-0.37 -0.99 -0.17036 -0.0188309 0.00973617 0.00973027 9.01216e-06 0.00973465 1.7127e-07 272.941 
-0.41 -0.97 -0.128078 -0.128855 0.00974304 0.00972531 7.56391e-06 0.00973511 1.71262e-07 272.966 
-0.45 -0.95 0.169517 -0.214044 0.00975264 0.00973311 7.80448e-06 0.00974743 1.71465e-07 272.99 
-0.49 -0.93 -0.0132662 -0.0162801 0.00976088 0.00971496 1.34334e-06 0.00974106 1.71372e-07 272.959 
-0.35 -0.99 -0.00747936 -0.114057 0.00972551 0.00970547 1.11702e-05 0.00971452 1.70851e-07 273.045 
-0.39 -0.97 0.0101097 0.0595252 0.00973466 0.00972206 8.49259e-06 0.0097346 1.71297e-07 272.897 
-0.43 -0.95 0.122843 0.0181226 0.00975538 0.00972129 1.19617e-05 0.0097425 1.71472e-07 272.839 
-0.47 -0.93 0.0861993 0.010025 0.0097548 0.00971645 1.32276e-06 0.00973622 1.71346e-07 272.864 
-0.33 -0.99 0.0672279 0.0255809 0.0097359 0.00972811 4.84979e-06 0.00973013 1.71191e-07 272.94 
-0.37 -0.97 0.0311204 -0.049766 0.00973376 0.00972835 3.93179e-06 0.00973633 1.71345e-07 272.87 
-0.41 -0.95 -0.0237777 0.0952557 0.00975334 0.00973054 6.32888e-06 0.00974364 1.71473e-07 272.87 
-0.45 -0.93 0.0167815 0.0588699 0.0097523 0.00972716 5.65323e-06 0.00974045 1.71439e-07 272.835 
-0.49 -0.91 0.0251062 0.102507 0.00975857 0.00971986 1.08788e-05 0.00973925 1.71212e-07 273.163 
-0.35 -0.97 -0.0354615 -0.0821836 0.0097374 0.00971331 5.70785e-06 0.00972671 1.71128e-07 272.945 
-0.39 -0.95 -0.165253 -0.0423308 0.00975128 0.00972487 6.91332e-06 0.00973949 1.71516e-07 272.685 
-0.43 -0.93 -0.089584 0.048165 0.00975377 0.00972122 4.54307e-06 0.00973247 1.71219e-07 272.962 
-0.47 -0.91 -0.260958 -0.0419848 0.00975466 0.00971574 4.36885e-06 0.0097351 1.71391e-07 272.761 
-0.33 -0.97 -0.109543 -0.0498116 0.00973912 0.00972313 3.1314e-06 0.00973659 1.71368e-07 272.84 
-0.37 -0.95 -0.111963 -0.0545982 0.00975311 0.00972179 1.12336e-05 0.00974125 1.71355e-07 272.991 
-0.41 -0.93 -0.0589181 0.0924382 0.00975682 0.00972999 1.40899e-05 0.00973355 1.71237e-07 272.963 
-0.45 -0.91 -0.139289 0.0291413 0.00976149 0.00972144 4.76291e-06 0.00974473 1.71449e-07 272.938 
-0.49 -0.89 -0.06783 0.104431 0.00976273 0.00972348 7.21562e-06 0.00974528 1.71415e-07 273.009 
-0.35 -0.95 -0.143637 -0.0805925 0.0097541 0.00972328 2.4789e-06 0.00973941 1.71428e-07 272.823 
-0.39 -0.93 -0.00544567 -0.111558 0.00975555 0.00972727 6.83557e-06 0.00974024 1.71557e-07 272.641 
-0.43 -0.91 -0.221009 0.0282085 0.0097548 0.00972728 8.56133e-06 0.00973854 1.71191e-07 273.176 
-0.47 -0.89 0.0682746 0.128955 0.00975644 0.00972087 8.67844e-06 0.0097398 1.71452e-07 272.796 
-0.37 -0.93 -0.0331931 0.0177473 0.0097568 0.00972249 1.78192e-06 0.00974379 1.71364e-07 273.047 
-0.41 -0.91 -0.118202 0.0384197 0.00976292 0.00972261 2.96523e-06 0.00974073 1.71367e-07 272.957 
-0.45 -0.89 -0.229665 0.1556 0.00975032 0.00971514 -1.96292e-06 0.00973805 1.71312e-07 272.971 
-0.49 -0.87 -0.0475138 0.133341 0.00974247 0.00971491 -1.07909e-06 0.00972659 1.71258e-07 272.734 
-0.35 -0.93 -0.321451 0.0199177 0.00975786 0.0097249 5.02052e-06 0.00973693 1.71433e-07 272.745 
-0.39 -0.91 -0.159871 -0.0305604 0.00976821 0.00973322 1.3377e-05 0.00975306 1.71678e-07 272.807 
-0.43 -0.89 -0.221985 -0.064894 0.0097647 0.00973283 1.3316e-06 0.00975062 1.71449e-07 273.104 
-0.47 -0.87 0.110674 0.160136 0.00975453 0.00972209 3.40153e-06 0.00973485 1.71363e-07 272.799 
-0.37 -0.91 -0.267595 0.130959 0.00975298 0.00972594 6.57082e-06 0.00973976 1.71635e-07 272.504 
-0.41 -0.89 -0.0963248 0.040498 0.00975929 0.0097156 2.08748e-06 0.00974112 1.71471e-07 272.803 
-0.45 -0.87 -0.044518 0.194947 0.00976078 0.00971873 5.39556e-06 0.00974768 1.71439e-07 273.037 
-0.49 -0.85 -0.0151438 0.12556 0.00975632 0.00971723 -6.84348e-07 0.0097346 1.71307e-07 272.881 
-0.35 -0.91 -0.176988 0.13432 0.00974877 0.00972177 4.60733e-06 0.00973537 1.71351e-07 272.832 
-0.39 -0.89 -0.140826 0.127086 0.00975527 0.00971984 1.21869e-05 0.00974366 1.71494e-07 272.837 
-0.43 -0.87 -0.0490131 -0.0274431 0.00974234 0.00973056 5.17038e-06 0.00974322 1.71429e-07 272.928 
-0.47 -0.85 -0.1901 0.22649 0.00975267 0.00971911 1.31608e-06 0.00973975 1.71362e-07 272.937 
-0.33 -0.91 -0.196094 -0.131576 0.00974758 0.00971153 1.20417e-05 0.00973138 1.71353e-07 272.717 
-0.37 -0.89 -0.236384 0.0673203 0.00976578 0.00974266 1.69795e-05 0.00975892 1.71645e-07 273.023 
-0.41 -0.87 -0.24259 0.0909217 0.00974757 0.00972047 6.16883e-06 0.00973651 1.71442e-07 272.719 
-0.45 -0.85 -0.0842641 0.150497 0.00975133 0.00971432 5.47143e-06 0.00973785 1.71335e-07 272.927 
-0.35 -0.89 -0.288171 0.16927 0.00976204 0.00971516 1.19742e-05 0.00973103 1.7127e-07 272.839 
-0.39 -0.87 -0.234581 0.0545226 0.00975554 0.00971496 2.72624e-06 0.0097369 1.71475e-07 272.678 
-0.43 -0.85 -0.124735 0.0695469 0.00976591 0.00973399 1.92181e-06 0.0097479 1.7159e-07 272.803 
-0.37 -0.87 -0.235061 0.189681 0.00976519 0.00973473 8.75215e-06 0.00974903 1.71524e-07 272.94 
-0.41 -0.85 -0.132266 0.113488 0.0097611 0.00971844 4.96699e-06 0.00974431 1.71607e-07 272.676 
-0.35 -0.87 -0.160326 0.110063 0.00976755 0.00971931 1.18806e-05 0.00974076 1.71348e-07 272.988 
-0.39 -0.85 -0.290104 0.29719 0.00976052 0.00972015 -2.25458e-06 0.00974498 1.71503e-07 272.859 
-0.33 -0.87 -0.36318 0.0229817 0.0097683 0.00972381 1.13096e-05 0.00974477 1.7139e-07 273.034 
-0.37 -0.85 -0.365043 0.0112809 0.00975953 0.00971992 4.26112e-06 0.00974051 1.71385e-07 272.922 
-0.35 -0.85 -0.266916 0.111061 0.00976208 0.00972176 1.22652e-05 0.00974099 1.71217e-07 273.203 
-0.33 -0.85 -0.379263 0.377826 0.00976001 0.00972516 9.97743e-06 0.00973825 1.71335e-07 272.938 
-0.31 -0.99 0.137221 -0.0565453 0.00972841 0.00970859 1.37676e-05 0.00971933 1.71157e-07 272.692 
-0.29 -0.99 0.0415503 0.202474 0.00973009 0.00971991 1.25821e-05 0.00972875 1.7123e-07 272.839 
-0.27 -0.99 -0.0800288 -0.0873393 0.00974586 0.00973083 8.62112e-06 0.00973433 1.71125e-07 273.164 
-0.31 -0.97 -0.319789 -0.0755002 0.00974798 0.00971348 6.53376e-06 0.00973449 1.71335e-07 272.834 
-0.29 -0.97 -0.2692 0.240792 0.00975991 0.00972116 9.54368e-06 0.00974656 1.71596e-07 272.757 
-0.33 -0.95 -0.0945408 0.0949854 0.00975072 0.00971694 6.13434e-06 0.0097338 1.71277e-07 272.907 
-0.27 -0.97 -0.187219 -0.0193301 0.00974925 0.00972428 1.22586e-05 0.00973901 1.71447e-07 272.781 
-0.31 -0.95 -0.154705 0.132524 0.00974857 0.00971438 4.88633e-06 0.00973167 1.71299e-07 272.811 
-0.29 -0.95 -0.113539 0.0140975 0.0097419 0.00970732 9.86028e-06 0.00972172 1.71232e-07 272.639 
-0.33 -0.93 -0.348136 0.070234 0.00975858 0.00971344 2.9368e-06 0.00973376 1.71285e-07 272.892 
-0.27 -0.95 -0.243702 0.0724616 0.00974719 0.00973258 8.62758e-06 0.00973905 1.71413e-07 272.837 
-0.31 -0.93 -0.105584 0.0261346 0.00975577 0.00971159 9.27448e-06 0.00973345 1.71495e-07 272.55 
-0.29 -0.93 -0.237475 0.12289 0.00975771 0.00970878 7.1722e-06 0.00973321 1.71432e-07 272.643 
-0.27 -0.93 -0.106747 0.085836 0.0097622 0.00972849 9.40677e-06 0.00974833 1.71636e-07 272.742 
-0.31 -0.91 -0.230199 0.158544 0.00975243 0.00971286 5.20629e-06 0.00973576 1.71405e-07 272.758 
-0.29 -0.91 -0.304616 0.0376611 0.00975069 0.00970805 3.40043e-08 0.00972885 1.71331e-07 272.681 
-0.33 -0.89 -0.301112 -0.121596 0.00975741 0.00972152 8.09648e-06 0.00973922 1.71333e-07 272.969 
-0.27 -0.91 -0.176915 0.0610549 0.00975495 0.00972226 5.92092e-06 0.00973182 1.7147e-07 272.543 
-0.31 -0.89 -0.271965 0.121285 0.0097595 0.00971287 2.59587e-06 0.00974502 1.71528e-07 272.821 
-0.29 -0.89 -0.196918 -0.0327737 0.00975585 0.00970889 4.39846e-06 0.0097376 1.71288e-07 272.995 
-0.27 -0.89 -0.303181 0.188292 0.00974959 0.00971702 1.08003e-05 0.00974101 1.7144e-07 272.849 
-0.31 -0.87 -0.460894 0.0710073 0.00975825 0.00971778 6.46854e-06 0.0097358 1.71421e-07 272.733 
-0.29 -0.87 -0.37217 -0.0226882 0.00974999 0.0097043 9.48362e-06 0.00973199 1.71201e-07 272.977 
-0.27 -0.87 -0.393586 0.2486 0.00974934 0.00971755 1.14e-05 0.00973924 1.71437e-07 272.804 
-0.31 -0.85 -0.421635 -0.132881 0.00975992 0.00971831 1.96693e-05 0.0097403 1.71472e-07 272.778 
-0.29 -0.85 -0.341932 0.0570719 0.00975452 0.00970565 1.17138e-05 0.00974275 1.71461e-07 272.864 
-0.27 -0.85 -0.426921 0.232046 0.00975179 0.00971207 8.42771e-06 0.00973693 1.71204e-07 273.11 
-0.25 -0.99 -0.236219 0.113031 0.00974578 0.00973871 1.46994e-05 0.00974196 1.71355e-07 273.011 
-0.25 -0.97 -0.0781597 0.19997 0.00975035 0.00973441 8.25283e-06 0.00974289 1.71573e-07 272.69 
-0.25 -0.95 -0.340797 0.172223 0.00974428 0.00973556 9.74599e-06 0.00973987 1.71459e-07 272.787 
-0.25 -0.93 -0.0598526 0.157953 0.00975975 0.00973556 1.64667e-05 0.00974409 1.71613e-07 272.66 
-0.25 -0.91 -0.290991 0.137451 0.00975857 0.00972537 1.37588e-05 0.009743 1.71534e-07 272.755 
-0.25 -0.89 -0.390057 0.240293 0.00974755 0.00971909 1.02801e-05 0.00973456 1.71248e-07 272.974 
-0.25 -0.87 -0.420446 0.308703 0.00974566 0.00971156 1.67531e-05 0.0097365 1.71248e-07 273.029 
-0.25 -0.85 -0.354358 0.378418 0.00976066 0.00971872 1.06409e-05 0.00974781 1.71362e-07 273.164 
-0.25 -0.83 -0.468901 0.223615 0.00975389 0.00971107 4.75144e-06 0.00974453 1.71312e-07 273.151 
-0.33 -0.81 -0.0899984 0.135291 0.00975942 0.00971105 1.07006e-05 0.00973231 1.71334e-07 272.774 
-0.31 -0.81 -0.216242 0.246996 0.00977312 0.0097186 1.37474e-05 0.00974757 1.71349e-07 273.177 
-0.29 -0.81 -0.289956 0.143703 0.00977522 0.00972149 6.85194e-06 0.00975202 1.71386e-07 273.243 
-0.27 -0.81 -0.409726 0.350582 0.00977476 0.00972148 9.71557e-06 0.00975579 1.71491e-07 273.182 
-0.31 -0.79 -0.347887 0.223397 0.00975995 0.0097155 5.09567e-06 0.00973962 1.71448e-07 272.797 
-0.29 -0.79 -0.429486 0.477621 0.00976524 0.00972182 6.0385e-06 0.00974093 1.71485e-07 272.775 
-0.33 -0.77 -0.383933 0.284171 0.00977078 0.00971982 1.25374e-05 0.00974701 1.71422e-07 273.046 
-0.27 -0.79 -0.546558 0.231994 0.00976506 0.00971043 1.4721e-05 0.00974053 1.7143e-07 272.851 
-0.31 -0.77 -0.28692 0.22724 0.00976156 0.00970748 1.04237e-05 0.00973627 1.71366e-07 272.834 
-0.29 -0.77 -0.327844 0.442464 0.00975587 0.00972188 1.00824e-05 0.00974095 1.71579e-07 272.626 
-0.27 -0.77 -0.356158 0.339079 0.00975303 0.00970661 8.25946e-06 0.00973424 1.71311e-07 272.865 
-0.31 -0.75 -0.20435 0.371344 0.00975854 0.00971625 8.22428e-06 0.00974706 1.71519e-07 272.892 
-0.29 -0.75 -0.474895 0.485906 0.00975754 0.00971765 1.50487e-05 0.00974389 1.71486e-07 272.856 
-0.27 -0.75 -0.513367 0.574742 0.00975873 0.00970856 1.58999e-05 0.00973456 1.71261e-07 272.953 
-0.49 -0.83 -0.0793611 0.242837 0.00975643 0.00972031 3.65816e-06 0.00973781 1.71456e-07 272.733 
-0.47 -0.83 -0.12014 0.205515 0.00975699 0.00971541 3.27148e-06 0.00974035 1.7167e-07 272.465 
-0.45 -0.83 -0.0951033 0.168391 0.00975381 0.00972435 -1.15086e-06 0.00974175 1.71503e-07 272.77 
-0.49 -0.81 0.0199864 0.302963 0.00975762 0.00972335 8.70948e-07 0.00974291 1.71437e-07 272.907 
-0.43 -0.83 -0.10324 0.0997359 0.00974671 0.00971736 2.197e-06 0.00973479 1.71467e-07 272.631 
-0.47 -0.81 -0.0523121 0.175222 0.00975751 0.00971616 1.31856e-06 0.00974408 1.71445e-07 272.927 
-0.45 -0.81 -0.0298049 0.188657 0.00976753 0.00972758 3.63276e-06 0.0097483 1.71639e-07 272.736 
-0.49 -0.79 -0.0172767 0.428276 0.00975887 0.00972102 3.07808e-06 0.00974098 1.71399e-07 272.914 
-0.43 -0.81 -0.0983048 0.221981 0.0097693 0.00971428 -1.2784e-06 0.00974623 1.71729e-07 272.536 
-0.47 -0.79 0.0094766 0.0624884 0.00975857 0.00971723 -6.91547e-06 0.00974199 1.71395e-07 272.948 
-0.41 -0.81 -0.304877 0.275413 0.00976384 0.00972274 8.57889e-06 0.00974897 1.71555e-07 272.889 
-0.45 -0.79 -0.00744916 0.293186 0.00975801 0.00972568 -1.85952e-06 0.00974092 1.71454e-07 272.824 
-0.49 -0.77 0.065403 0.261505 0.00975636 0.00971855 3.83026e-06 0.00973814 1.71269e-07 273.041 
-0.39 -0.81 -0.301792 0.186177 0.00975425 0.00972024 1.36362e-05 0.00974449 1.71503e-07 272.847 
-0.43 -0.79 -0.287898 0.451726 0.00976221 0.00971044 2.91819e-06 0.00973896 1.71483e-07 272.722 
-0.47 -0.77 -0.0123137 0.309793 0.00975603 0.00972386 -1.72942e-06 0.00974145 1.71347e-07 273.009 
-0.37 -0.81 -0.0726961 0.189326 0.00975453 0.00971408 6.83018e-06 0.00973423 1.71473e-07 272.606 
-0.41 -0.79 -0.406839 0.360978 0.00976405 0.00971838 7.42147e-06 0.00974703 1.71675e-07 272.644 
-0.45 -0.77 -0.33502 0.460592 0.00975649 0.00972045 -2.05398e-06 0.00974102 1.7146e-07 272.817 
-0.35 -0.81 -0.0301342 0.250802 0.00974512 0.00971594 1.89044e-06 0.00973405 1.71331e-07 272.827 
-0.39 -0.79 -0.313372 0.041127 0.00976787 0.0097207 6.64488e-06 0.00974667 1.7173e-07 272.546 
-0.43 -0.77 -0.336596 0.535314 0.00975067 0.0097093 1.86651e-06 0.00973143 1.7142e-07 272.613 
-0.37 -0.79 -0.374974 0.174205 0.00977206 0.00971464 7.70445e-06 0.00974634 1.7153e-07 272.854 
-0.41 -0.77 -0.343691 0.198591 0.00975378 0.00971118 5.31983e-06 0.00973563 1.71442e-07 272.695 
-0.35 -0.79 -0.305278 0.162782 0.00977118 0.00972014 1.35858e-05 0.00974741 1.71592e-07 272.786 
-0.39 -0.77 -0.15891 0.110726 0.00975297 0.00972307 7.94426e-06 0.00974711 1.71621e-07 272.731 
-0.43 -0.75 0.0794116 0.282994 0.00976578 0.00971707 -3.61709e-06 0.00974506 1.71523e-07 272.83 
-0.33 -0.79 -0.24383 0.231361 0.00975807 0.00970973 1.1008e-06 0.00973008 1.71353e-07 272.681 
-0.37 -0.77 -0.165006 0.230564 0.00975751 0.00971167 3.13234e-06 0.00973873 1.71457e-07 272.758 
-0.41 -0.75 0.0173542 0.379343 0.00976731 0.0097008 3.80158e-06 0.00974202 1.71623e-07 272.586 
-0.35 -0.77 -0.403049 0.222572 0.00977018 0.00972131 5.1154e-06 0.0097468 1.71394e-07 273.084 
-0.39 -0.75 -0.283222 0.129553 0.00977173 0.00972408 4.8772e-06 0.0097501 1.71594e-07 272.858 
-0.49 -0.75 -0.037468 0.257411 0.00975298 0.00972286 3.49583e-06 0.00973988 1.71258e-07 273.107 
-0.47 -0.75 -0.0894257 0.441672 0.00975286 0.00973179 2.60808e-06 0.00973861 1.71264e-07 273.062 
-0.45 -0.75 -0.0885565 0.62561 0.00975274 0.00970708 -4.62335e-06 0.00972879 1.71341e-07 272.664 
-0.49 -0.73 -0.0654802 0.448439 0.00977221 0.00972115 5.18591e-06 0.00974922 1.71435e-07 273.087 
-0.47 -0.73 -0.188948 0.440052 0.00977172 0.00974263 3.66365e-06 0.00975454 1.71452e-07 273.209 
-0.45 -0.73 -0.144098 0.377962 0.00976924 0.00971418 -9.549e-06 0.00974173 1.71507e-07 272.762 
-0.49 -0.71 -0.0633521 0.569425 0.00977882 0.00972037 6.08981e-07 0.0097458 1.71539e-07 272.825 
-0.43 -0.73 -0.0765297 0.346678 0.00975552 0.00970695 -5.09244e-07 0.0097371 1.71431e-07 272.754 
-0.47 -0.71 -0.103026 0.530916 0.00977997 0.00973946 2.227e-07 0.00975904 1.71674e-07 272.981 
-0.37 -0.75 -0.245578 0.212689 0.00976096 0.00971611 7.87344e-06 0.00974182 1.71546e-07 272.702 
-0.41 -0.73 -0.0406007 0.419656 0.00975735 0.00969923 -1.99459e-06 0.00973736 1.71597e-07 272.497 
-0.45 -0.71 0.101037 0.139831 0.00977191 0.00972178 8.33914e-06 0.00974854 1.7158e-07 272.836 
-0.49 -0.69 0.0230836 0.566627 0.0097748 0.00971423 -7.50936e-06 0.00974371 1.71539e-07 272.767 
-0.35 -0.75 -0.0951939 0.25409 0.00975218 0.00971265 7.50582e-06 0.00973662 1.7139e-07 272.805 
-0.39 -0.73 -0.0244939 0.196995 0.0097605 0.00971277 8.77569e-06 0.00974138 1.71391e-07 272.938 
-0.43 -0.71 -0.036714 0.422616 0.0097684 0.00970714 1.58789e-06 0.00974256 1.71552e-07 272.715 
-0.47 -0.69 0.114016 0.377331 0.00977804 0.00972814 4.41335e-06 0.00975187 1.7152e-07 273.025 
-0.37 -0.73 -0.23185 0.226107 0.00976875 0.00972251 8.40277e-06 0.0097493 1.71591e-07 272.841 
-0.41 -0.71 -0.0142839 0.469858 0.0097688 0.00969114 -4.72281e-07 0.00973591 1.71648e-07 272.376 
-0.45 -0.69 -0.0866216 0.32851 0.00978824 0.00972467 1.02726e-05 0.00976114 1.71794e-07 272.85 
-0.35 -0.73 -0.465156 0.411082 0.00976668 0.00971037 1.00745e-05 0.00974429 1.71511e-07 272.828 
-0.39 -0.71 -0.139221 0.252144 0.00977215 0.00971612 -2.35678e-06 0.0097436 1.71583e-07 272.694 
-0.43 -0.69 -0.18551 0.538703 0.0097887 0.00971659 7.44717e-06 0.00976075 1.71915e-07 272.646 
-0.33 -0.73 -0.454748 0.113863 0.00976758 0.00970704 1.29808e-05 0.00973984 1.71563e-07 272.62 
-0.37 -0.71 -0.0390152 0.366449 0.00977234 0.00971632 1.19935e-05 0.00974835 1.71621e-07 272.766 
-0.41 -0.69 -0.128931 0.303195 0.00977907 0.00970014 -5.39455e-07 0.00974142 1.71684e-07 272.473 
-0.35 -0.71 -0.264093 0.569168 0.00976696 0.00970284 6.25956e-06 0.00974666 1.7158e-07 272.784 
-0.39 -0.69 -0.0598471 0.410034 0.00976577 0.0097048 6.86467e-06 0.00973633 1.71483e-07 272.649 
-0.37 -0.69 -0.279107 0.451741 0.00976399 0.00971038 9.84353e-06 0.00974266 1.71466e-07 272.854 
-0.35 -0.69 -0.259861 0.674483 0.00976819 0.00970415 1.19244e-05 0.00974006 1.71409e-07 272.871 
-0.35 -0.67 -0.19067 0.59067 0.00977357 0.0097176 8.34529e-06 0.00974478 1.71509e-07 272.844 
-0.33 -0.67 -0.221073 0.541795 0.00976048 0.00970158 4.63989e-06 0.00974406 1.71573e-07 272.723 
-0.33 -0.75 -0.118168 0.187345 0.00975235 0.00971208 1.12915e-05 0.0097354 1.71348e-07 272.837 
-0.31 -0.73 -0.470111 0.50911 0.00976618 0.00972388 1.09324e-05 0.00974768 1.71531e-07 272.891 
-0.29 -0.73 -0.292154 0.6157 0.0097677 0.00970631 1.03576e-05 0.00974553 1.71398e-07 273.042 
-0.33 -0.71 -0.544821 0.163646 0.0097648 0.00971205 1.54668e-05 0.00974427 1.71535e-07 272.789 
-0.27 -0.73 -0.500761 0.583304 0.00976555 0.0097169 1.66758e-05 0.00974973 1.71418e-07 273.128 
-0.31 -0.71 -0.397248 0.347554 0.0097655 0.00972439 1.17572e-05 0.00975184 1.71633e-07 272.845 
-0.29 -0.71 -0.462599 0.582892 0.00976154 0.00970175 1.42121e-05 0.00973981 1.71276e-07 273.077 
-0.33 -0.69 -0.306991 0.290159 0.00978051 0.00970894 1.36045e-06 0.00975104 1.71767e-07 272.61 
-0.27 -0.71 -0.401091 0.614156 0.00976739 0.00971266 1.05683e-05 0.00974063 1.71228e-07 273.176 
-0.31 -0.69 -0.508932 0.369816 0.00978314 0.00972201 1.26676e-05 0.00976174 1.71755e-07 272.928 
-0.29 -0.69 -0.502581 0.66373 0.00978088 0.00970792 1.54844e-05 0.0097499 1.7155e-07 272.923 
-0.27 -0.69 -0.334685 0.405399 0.00978258 0.0097154 8.51176e-06 0.00975035 1.71292e-07 273.346 
-0.31 -0.67 -0.406484 0.461974 0.0097594 0.00971207 1.01253e-05 0.00974216 1.71501e-07 272.785 
-0.29 -0.67 -0.39745 0.441149 0.0097658 0.0097146 1.10135e-05 0.00974618 1.71399e-07 273.059 
-0.41 -0.83 -0.116133 0.239355 0.00975407 0.00972643 3.45739e-06 0.00974296 1.71535e-07 272.752 
-0.39 -0.83 -0.0847252 0.318199 0.00974953 0.00972188 2.48179e-06 0.00973179 1.7137e-07 272.702 
-0.37 -0.83 -0.12953 0.202345 0.00974247 0.00971289 4.87069e-06 0.00972932 1.71216e-07 272.878 
-0.35 -0.83 -0.357788 0.0756606 0.00975028 0.00971902 1.29371e-05 0.00973177 1.7126e-07 272.876 
-0.33 -0.83 -0.214189 0.299671 0.00974995 0.00972131 1.31932e-05 0.00973434 1.71172e-07 273.089 
-0.31 -0.83 -0.147813 -0.169019 0.00974349 0.00970819 1.48694e-05 0.00973328 1.71345e-07 272.784 
-0.29 -0.83 -0.388626 0.192863 0.00975184 0.00972055 1.89088e-05 0.00974647 1.71309e-07 273.211 
-0.27 -0.83 -0.494145 0.309024 0.00975172 0.00971625 4.38853e-06 0.00974424 1.71268e-07 273.214 
-0.27 -0.67 -0.44672 0.514701 0.00975982 0.00971624 1.61192e-05 0.00974254 1.71344e-07 273.045 
-0.25 -0.67 -0.439836 0.51333 0.00976815 0.00972191 6.54736e-06 0.0097542 1.71481e-07 273.153 
-0.25 -0.81 -0.45271 0.263552 0.00976091 0.0097121 6.54563e-06 0.0097472 1.71494e-07 272.936 
-0.25 -0.79 -0.438394 0.193801 0.0097705 0.00972562 1.84956e-05 0.0097498 1.71467e-07 273.052 
-0.35 -0.55 -0.288034 0.725869 0.00978396 0.00971399 8.6212e-06 0.00974864 1.71489e-07 272.984 
-0.39 -0.53 -0.138591 0.903726 0.00977813 0.00969278 3.12914e-06 0.00974325 1.7144e-07 272.911 
-0.37 -0.57 -0.307097 0.690764 0.00977917 0.00970441 8.17206e-06 0.00974837 1.71384e-07 273.144 
-0.41 -0.55 -0.160081 0.949167 0.00976069 0.00970204 2.5748e-06 0.00973683 1.71502e-07 272.633 
-0.45 -0.53 0.0336281 0.648587 0.00976547 0.00969669 -9.55511e-07 0.00973197 1.71368e-07 272.71 
-0.35 -0.57 -0.260251 0.69491 0.00978032 0.00970638 2.02422e-05 0.00974276 1.71426e-07 272.92 
-0.39 -0.55 -0.194923 0.787748 0.0097613 0.00969214 4.59757e-06 0.00974181 1.71423e-07 272.898 
-0.43 -0.53 -0.0833095 0.680138 0.00977357 0.0096961 5.69e-06 0.00973786 1.71559e-07 272.572 
-0.47 -0.51 -0.0761434 0.739206 0.00976738 0.00969856 -3.17176e-06 0.00973361 1.71518e-07 272.517 
-0.37 -0.55 -0.245517 0.70338 0.00976459 0.00968969 7.15833e-06 0.00973584 1.71212e-07 273.067 
-0.41 -0.53 -0.101504 0.808529 0.00977893 0.00970236 -6.14947e-08 0.00974478 1.71524e-07 272.82 
-0.45 -0.51 -0.320634 0.732493 0.00976836 0.00969132 1.21349e-06 0.00973584 1.71507e-07 272.598 
-0.37 -0.53 -0.180956 0.755555 0.00977771 0.00969402 1.47148e-06 0.00973994 1.71452e-07 272.8 
-0.41 -0.51 -0.235861 0.794411 0.00976312 0.00969849 1.27919e-06 0.00973641 1.71437e-07 272.724 
-0.35 -0.53 -0.336339 0.785043 0.00976919 0.00970143 1.15329e-05 0.00973726 1.71432e-07 272.756 
-0.39 -0.51 -0.34072 0.918185 0.00976907 0.00969189 1.94494e-06 0.00973585 1.71506e-07 272.599 
-0.37 -0.51 -0.423167 0.878454 0.00976584 0.00968766 8.20993e-06 0.00972837 1.71238e-07 272.816 
-0.35 -0.51 -0.503222 0.846902 0.00976796 0.0096981 1.0297e-05 0.0097294 1.71361e-07 272.649 
-0.49 -0.65 0.0833838 0.468495 0.00977384 0.00971354 1.01361e-05 0.00974516 1.71419e-07 272.999 
-0.47 -0.65 -0.0579946 0.443568 0.00977433 0.0097222 1.37963e-06 0.00975256 1.71622e-07 272.882 
-0.45 -0.65 0.0127673 0.534522 0.00976865 0.00972259 4.72506e-06 0.00974889 1.71705e-07 272.649 
-0.49 -0.63 -0.00289779 0.424709 0.00976141 0.00972062 -6.46151e-07 0.00974705 1.71724e-07 272.566 
-0.43 -0.65 0.0735587 0.671449 0.00976113 0.00969783 5.59764e-06 0.00973493 1.71463e-07 272.642 
-0.47 -0.63 0.0057628 0.523304 0.00976313 0.00971484 -6.554e-07 0.00974409 1.7164e-07 272.617 
-0.41 -0.65 0.0229736 0.516596 0.00976625 0.00970575 1.21787e-05 0.00973926 1.71401e-07 272.862 
-0.45 -0.63 -0.0179185 0.485505 0.00977055 0.00972061 7.66389e-06 0.00975088 1.71655e-07 272.783 
-0.49 -0.61 -0.0528102 0.520874 0.00976478 0.0097172 -9.49325e-06 0.00974767 1.71571e-07 272.827 
-0.39 -0.65 -0.15435 0.368103 0.009765 0.00971421 7.6515e-06 0.00974577 1.71427e-07 273.002 
-0.43 -0.63 -0.14881 0.655931 0.00977865 0.00970295 7.85384e-06 0.00973858 1.71331e-07 272.954 
-0.47 -0.61 -0.201885 0.481816 0.00976575 0.00971201 2.45679e-06 0.00974221 1.71492e-07 272.8 
-0.37 -0.65 -0.329696 0.657749 0.00976614 0.00969784 9.93819e-07 0.0097341 1.71265e-07 272.933 
-0.41 -0.63 -0.222398 0.642334 0.00977334 0.00969685 3.42867e-06 0.00973726 1.71445e-07 272.736 
-0.45 -0.61 -0.247548 0.639898 0.0097655 0.0097166 -9.06558e-06 0.00974132 1.71414e-07 272.899 
-0.49 -0.59 -0.0905174 0.526168 0.00977937 0.00970855 -6.76356e-06 0.00975199 1.71697e-07 272.747 
-0.35 -0.65 -0.347981 0.513937 0.00977526 0.00971978 9.45461e-06 0.00974792 1.71576e-07 272.826 
-0.39 -0.63 -0.203981 0.603069 0.00978266 0.00971849 1.0366e-05 0.00975057 1.71578e-07 272.896 
-0.43 -0.61 -0.0944996 0.725367 0.00977564 0.00969834 4.76295e-06 0.00973852 1.71341e-07 272.937 
-0.47 -0.59 0.00217388 0.62466 0.00978705 0.00971973 -7.86094e-06 0.00975814 1.71674e-07 272.956 
-0.37 -0.63 -0.342187 0.605159 0.00976814 0.00969951 9.582e-06 0.0097357 1.7139e-07 272.78 
-0.41 -0.61 -0.221886 0.603543 0.00977959 0.00971013 8.88228e-06 0.00974335 1.7142e-07 272.945 
-0.45 -0.59 -0.0644283 0.462417 0.00978543 0.00971405 -1.27293e-06 0.00975456 1.71646e-07 272.901 
-0.49 -0.57 -0.0155091 0.533906 0.00978461 0.00970669 -8.38837e-06 0.0097452 1.71533e-07 272.819 
-0.35 -0.63 -0.397792 0.558252 0.00976393 0.00970865 8.10431e-06 0.00973789 1.71412e-07 272.807 
-0.39 -0.61 -0.142019 0.492263 0.00977822 0.00970331 5.54485e-06 0.00974006 1.71375e-07 272.925 
-0.43 -0.59 -0.106727 0.838651 0.00977302 0.00969184 3.72207e-06 0.0097437 1.71608e-07 272.658 
-0.47 -0.57 -0.0593665 0.581208 0.00977723 0.00971862 -6.57413e-06 0.00974464 1.71531e-07 272.806 
-0.37 -0.61 -0.123823 0.80068 0.00978154 0.00970841 1.34386e-05 0.00974413 1.71561e-07 272.743 
-0.41 -0.59 -0.0249234 0.564412 0.00977713 0.00970678 1.07624e-06 0.0097405 1.7145e-07 272.818 
-0.45 -0.57 -0.0516249 0.64456 0.00977216 0.00970265 2.13162e-06 0.00973962 1.71386e-07 272.896 
-0.49 -0.55 -0.0289689 0.60425 0.00976274 0.00970462 -1.02538e-05 0.00973971 1.71489e-07 272.734 
-0.35 -0.61 -0.085454 0.500004 0.00977414 0.00970278 7.76547e-06 0.00973641 1.71349e-07 272.866 
-0.39 -0.59 -0.0722975 0.519558 0.00977432 0.00968999 8.67548e-06 0.00973839 1.71428e-07 272.794 
-0.43 -0.57 0.0671574 0.651808 0.00977699 0.00969371 1.93869e-06 0.00974014 1.71364e-07 272.945 
-0.47 -0.55 -0.0755163 0.742456 0.00977233 0.00970314 9.95131e-07 0.00974414 1.71674e-07 272.565 
-0.33 -0.61 -0.31748 0.628197 0.00977127 0.00969986 1.67312e-05 0.00973873 1.71273e-07 273.051 
-0.37 -0.59 -0.141533 0.703485 0.00977751 0.00971814 1.74392e-05 0.00974989 1.71588e-07 272.861 
-0.41 -0.57 -0.0826829 0.662773 0.0097749 0.00970361 1.1976e-05 0.00974123 1.71421e-07 272.885 
-0.45 -0.55 -0.157461 0.484545 0.00976803 0.00970231 5.57063e-06 0.00973166 1.71298e-07 272.812 
-0.49 -0.53 0.0174897 0.618084 0.00976172 0.0096967 -4.29626e-06 0.00973569 1.71417e-07 272.737 
-0.35 -0.59 -0.27666 0.689574 0.00977179 0.00969984 1.32633e-05 0.00973304 1.71442e-07 272.622 
-0.39 -0.57 -0.369526 0.790477 0.00977602 0.00968836 5.0521e-06 0.00974204 1.71404e-07 272.935 
-0.43 -0.55 -0.158469 0.564356 0.00976238 0.00968968 6.14203e-06 0.00973059 1.7139e-07 272.637 
-0.47 -0.53 0.0113822 0.645694 0.00975686 0.00969832 -2.89648e-06 0.00972732 1.71328e-07 272.643 
-0.29 -0.57 -0.587616 0.604745 0.00977254 0.0097085 2.05106e-05 0.00974379 1.71405e-07 272.983 
-0.33 -0.55 -0.462162 0.85723 0.00978631 0.00970755 1.3083e-05 0.00974733 1.7156e-07 272.834 
-0.29 -0.61 -0.350999 0.653109 0.0097652 0.00972084 9.05183e-06 0.00974689 1.7165e-07 272.679 
-0.33 -0.59 -0.34641 0.890987 0.00977216 0.00970063 1.2595e-05 0.00973631 1.71209e-07 273.086 
-0.27 -0.61 -0.425881 0.524744 0.00977472 0.00971046 1.48189e-05 0.00974588 1.71594e-07 272.74 
-0.31 -0.59 -0.582696 0.685246 0.00977793 0.009708 1.15486e-05 0.00974225 1.71474e-07 272.83 
-0.29 -0.59 -0.356204 0.454961 0.00978147 0.00971896 1.43564e-05 0.00974821 1.71573e-07 272.838 
-0.33 -0.57 -0.338359 0.888827 0.00977554 0.00970622 8.94242e-06 0.0097403 1.71346e-07 272.979 
-0.27 -0.59 -0.418522 0.643498 0.00976904 0.00970218 1.56776e-05 0.0097368 1.71383e-07 272.822 
-0.31 -0.57 -0.338773 0.722113 0.00977424 0.0097049 4.97352e-06 0.00973958 1.71403e-07 272.868 
-0.27 -0.57 -0.667309 0.654906 0.00977027 0.00970823 2.79499e-05 0.00975154 1.71632e-07 272.839 
-0.31 -0.55 -0.26621 0.949668 0.00977107 0.00970194 1.90938e-05 0.0097422 1.71443e-07 272.877 
-0.29 -0.55 -0.434277 0.642198 0.00975772 0.00969299 2.06349e-05 0.00972747 1.71281e-07 272.723 
-0.33 -0.53 -0.248916 1.00171 0.00976881 0.00969785 1.69348e-05 0.00973476 1.71264e-07 272.953 
-0.27 -0.55 -0.363937 0.577502 0.00976411 0.00971352 1.64719e-05 0.00973573 1.71374e-07 272.806 
-0.31 -0.53 -0.380659 0.766891 0.00976986 0.00970281 2.68557e-05 0.00974504 1.71532e-07 272.815 
-0.29 -0.53 -0.291842 0.677385 0.00978495 0.00970131 1.66453e-05 0.00975054 1.71496e-07 273.027 
-0.33 -0.51 -0.398753 0.78428 0.00976448 0.00968667 2.00866e-05 0.00973034 1.71128e-07 273.047 
-0.27 -0.53 -0.489843 0.829259 0.00977513 0.0097099 2.08657e-05 0.00974053 1.71312e-07 273.039 
-0.31 -0.51 -0.306 0.83869 0.00976849 0.00970558 1.7132e-05 0.00973355 1.71298e-07 272.865 
-0.29 -0.51 -0.440179 0.792008 0.00975581 0.00970081 2.28245e-05 0.00973628 1.71367e-07 272.833 
-0.27 -0.51 -0.529779 1.16035 0.00975726 0.00970235 2.96283e-05 0.00973424 1.71239e-07 272.979 
-0.33 -0.65 -0.341658 0.44911 0.00977692 0.00970146 1.3349e-05 0.00974173 1.71401e-07 272.932 
-0.31 -0.65 -0.254694 0.677267 0.00977436 0.00971491 1.32659e-05 0.00974846 1.71492e-07 272.974 
-0.29 -0.65 -0.521857 0.501576 0.00976347 0.00970304 9.73485e-06 0.00973495 1.71214e-07 273.039 
-0.33 -0.63 -0.314983 0.545025 0.00976334 0.00970628 6.03111e-06 0.0097437 1.71537e-07 272.77 
-0.27 -0.65 -0.50074 0.450763 0.00977307 0.00972344 8.47352e-06 0.00974847 1.71477e-07 272.998 
-0.31 -0.63 -0.512953 0.644564 0.00976253 0.00970245 1.38868e-05 0.00973782 1.71317e-07 272.955 
-0.25 -0.65 -0.479778 0.413088 0.00976476 0.00971838 8.76276e-06 0.00974556 1.71552e-07 272.798 
-0.29 -0.63 -0.487639 0.416522 0.00977222 0.00972345 1.40282e-05 0.00974692 1.71543e-07 272.85 
-0.27 -0.63 -0.49998 0.480249 0.00975798 0.00971357 1.05022e-05 0.00973587 1.71494e-07 272.618 
-0.31 -0.61 -0.332022 0.589371 0.00977126 0.00970766 1.18803e-05 0.00974691 1.71623e-07 272.723 
-0.49 -0.67 -0.00148016 0.516471 0.00977676 0.00971192 -5.45874e-06 0.00974329 1.71496e-07 272.823 
-0.47 -0.67 0.0475079 0.40324 0.00977215 0.00972286 -9.38935e-08 0.00974841 1.71591e-07 272.816 
-0.45 -0.67 0.0460473 0.491928 0.00977031 0.00972328 2.31315e-06 0.00975058 1.71629e-07 272.817 
-0.43 -0.67 -0.137316 0.597562 0.00977578 0.009712 8.01155e-06 0.00974681 1.71595e-07 272.765 