ITEM: TIMESTEP
800500
ITEM: NUMBER OF CELLS
5000
ITEM: BOX BOUNDS ss ss pp
-0.5 0.5
-1 1
-0.5 0.5
ITEM: CELLS xc yc f_U[*] f_V[*] f_Tau[1] f_Tau[2] f_Tau[3] f_Press[*] f_Mrho[*] f_Ttra[*] 
-0.49 -0.99 -3.14263 1.67581 0.00976843 0.00956763 -5.00761e-05 0.00971293 1.71106e-07 272.594 
-0.47 -0.99 -0.93211 -2.53649 0.00983629 0.00966619 -6.37581e-05 0.00979601 1.71588e-07 274.153 
-0.45 -0.99 1.6905 1.35517 0.00976813 0.00976935 -1.35356e-05 0.009688 1.70043e-07 273.593 
-0.49 -0.97 -1.84685 -0.471877 0.00978173 0.00978102 9.85609e-05 0.0097358 1.72383e-07 271.211 
-0.43 -0.99 0.658066 1.32507 0.00974155 0.00964748 8.38902e-05 0.00971371 1.71793e-07 271.525 
-0.47 -0.97 -3.26164 -1.28451 0.00958331 0.00949078 -8.71594e-05 0.00962084 1.69925e-07 271.886 
-0.41 -0.99 -2.10377 -0.889664 0.00982757 0.00979293 4.88147e-05 0.00982755 1.71772e-07 274.74 
-0.45 -0.97 0.489172 0.0281702 0.00966494 0.00967481 -4.26396e-05 0.00964555 1.70054e-07 272.378 
-0.49 -0.95 0.111571 -1.94877 0.00975012 0.00978704 5.6212e-05 0.00972808 1.72017e-07 271.572 
-0.39 -0.99 -0.809654 -1.9932 0.00959296 0.00961199 4.78221e-05 0.00959738 1.68551e-07 273.433 
-0.43 -0.97 -2.52093 4.17073 0.00949383 0.00969352 5.30852e-05 0.00961666 1.6871e-07 273.725 
-0.47 -0.95 -2.0327 1.02623 0.00977094 0.00975924 0.000204586 0.00976462 1.69638e-07 276.415 
-0.37 -0.99 -1.14157 -0.959416 0.00965964 0.00969098 -6.61167e-05 0.00965539 1.70324e-07 272.223 
-0.41 -0.97 -0.439337 0.0854859 0.00974102 0.0096084 6.33889e-06 0.00969592 1.70121e-07 273.692 
-0.45 -0.95 -0.844919 0.409237 0.00976196 0.00965875 1.16751e-05 0.0097023 1.71253e-07 272.062 
-0.49 -0.93 -0.101058 0.462607 0.00978365 0.00977353 -2.6329e-05 0.00980855 1.7219e-07 273.543 
-0.35 -0.99 2.48775 1.04882 0.00958917 0.00963503 3.1844e-05 0.00968461 1.69229e-07 274.814 
-0.39 -0.97 2.76347 -1.05569 0.00972501 0.00957512 7.58394e-05 0.0096183 1.6905e-07 273.22 
-0.43 -0.95 2.59472 2.68839 0.00979584 0.00970036 -6.93827e-05 0.00978571 1.71341e-07 274.26 
-0.47 -0.93 -3.67602 2.52455 0.00963059 0.00969165 -4.50042e-05 0.00964601 1.69611e-07 273.102 
-0.33 -0.99 1.27384 -2.17202 0.00970099 0.00966494 0.000106751 0.00965547 1.69916e-07 272.878 
-0.37 -0.97 1.51417 0.21685 0.00992939 0.00976743 -5.1634e-05 0.00983155 1.71261e-07 275.673 
-0.41 -0.95 0.274354 -1.34825 0.00979391 0.0098085 -5.7731e-05 0.00978532 1.72551e-07 272.325 
-0.45 -0.93 -0.439505 -0.207691 0.0097498 0.0099149 -2.31687e-05 0.00973879 1.71603e-07 272.527 
-0.49 -0.91 -1.70307 -1.82696 0.00980788 0.00960888 -7.82718e-06 0.00969359 1.70777e-07 272.575 
-0.35 -0.97 -0.265329 2.17461 0.0096771 0.00979308 0.000125182 0.0097709 1.71248e-07 273.993 
-0.39 -0.95 0.788068 -1.26445 0.00967814 0.00973044 -3.53071e-05 0.00970588 1.7147e-07 271.817 
-0.43 -0.93 1.58402 -0.621789 0.00975836 0.00953204 -3.17699e-05 0.00970762 1.69454e-07 275.1 
-0.47 -0.91 -1.49326 -3.14697 0.00985541 0.00971846 4.76011e-05 0.00979444 1.71901e-07 273.609 
-0.33 -0.97 2.96821 1.32285 0.00963886 0.00959645 5.75382e-05 0.00971158 1.70866e-07 272.939 
-0.37 -0.95 -1.97732 0.331137 0.00993185 0.00976463 5.07731e-05 0.0098052 1.72755e-07 272.556 
-0.41 -0.93 0.999366 -3.36249 0.00983564 0.00982025 -7.98949e-05 0.00989088 1.72009e-07 276.131 
-0.45 -0.91 -0.0253701 -1.68468 0.00977042 0.0096487 9.60056e-06 0.00968627 1.71347e-07 271.463 
-0.49 -0.89 3.30918 -0.0884134 0.00988926 0.00983065 -5.047e-05 0.00995216 1.72284e-07 277.397 
-0.35 -0.95 -0.604329 1.81761 0.00969776 0.00977778 -0.000109903 0.00971904 1.70721e-07 273.381 
-0.39 -0.93 -1.20239 -0.49551 0.00966105 0.00958519 1.33771e-05 0.00973826 1.71939e-07 271.98 
-0.43 -0.91 0.388152 1.07682 0.00978726 0.00959794 0.000102285 0.00973406 1.72137e-07 271.55 
-0.47 -0.89 -1.40406 0.741344 0.00983177 0.009785 3.11381e-05 0.00976945 1.73984e-07 269.645 
-0.37 -0.93 0.225557 -1.94834 0.00968016 0.00957691 -1.9473e-06 0.00963817 1.69056e-07 273.776 
-0.41 -0.91 2.9618 -0.507419 0.00965885 0.00960724 -9.01049e-05 0.00970035 1.72236e-07 270.455 
-0.45 -0.89 -2.19951 0.192669 0.00960021 0.00965964 -1.61772e-05 0.00955969 1.69773e-07 270.4 
-0.49 -0.87 0.666119 0.136368 0.00952249 0.00967431 4.78213e-05 0.0096686 1.70973e-07 271.561 
-0.35 -0.93 -2.16488 -0.618232 0.0097021 0.00998149 1.49074e-06 0.00983787 1.728e-07 273.393 
-0.39 -0.91 1.55758 0.246167 0.00960515 0.00954605 -1.02678e-06 0.0095779 1.70175e-07 270.275 
-0.43 -0.89 -1.22843 1.28813 0.00972967 0.00981564 -3.41815e-05 0.009813 1.70642e-07 276.151 
-0.47 -0.87 1.36874 -0.199355 0.0096329 0.00965968 5.87965e-06 0.00961502 1.71096e-07 269.862 
-0.37 -0.91 1.63608 -0.208208 0.00957971 0.00971241 -5.90667e-05 0.00967036 1.71206e-07 271.241 
-0.41 -0.89 0.0440529 2.25421 0.00965961 0.00971955 1.99965e-05 0.00976306 1.72536e-07 271.729 
-0.45 -0.87 -3.51942 -2.4183 0.00974888 0.0096299 6.14711e-05 0.00975832 1.74311e-07 268.831 
-0.49 -0.85 -1.10293 2.14209 0.00973341 0.00975585 -3.38298e-05 0.00975379 1.71819e-07 272.603 
-0.35 -0.91 -0.997544 0.0279055 0.00969055 0.00971393 -5.39211e-05 0.00964559 1.68974e-07 274.12 
-0.39 -0.89 -1.33994 1.24934 0.00959376 0.00976573 -2.54057e-05 0.0097579 1.7119e-07 273.721 
-0.43 -0.87 -3.96085 0.158001 0.00990464 0.00972466 -0.000113846 0.00983924 1.74015e-07 271.522 
-0.47 -0.85 0.292444 -0.996209 0.00958452 0.00971882 1.07688e-06 0.00964987 1.71321e-07 270.484 
-0.33 -0.91 -1.29626 -0.312084 0.00961272 0.00952962 -7.28201e-06 0.00959529 1.7062e-07 270.058 
-0.37 -0.89 -2.54067 -0.893723 0.00966475 0.00974326 1.85788e-05 0.00963679 1.69143e-07 273.595 
-0.41 -0.87 1.17513 4.52371 0.00984495 0.00988248 -1.81275e-05 0.0098083 1.72655e-07 272.801 
-0.45 -0.85 -1.27973 -0.351838 0.00990778 0.00966424 7.73064e-05 0.0098461 1.72279e-07 274.449 
-0.35 -0.89 1.33076 0.257422 0.00999069 0.00981364 4.09492e-06 0.00987191 1.75301e-07 270.425 
-0.39 -0.87 -0.323152 3.52458 0.00968722 0.00970817 -9.01883e-05 0.00963892 1.69734e-07 272.703 
-0.43 -0.85 0.648597 -2.12356 0.00990419 0.00975183 0.000114425 0.00976713 1.7172e-07 273.135 
-0.37 -0.87 0.5765 -1.81254 0.0096182 0.0097822 -1.77444e-05 0.0096594 1.69434e-07 273.766 
-0.41 -0.85 1.53986 -1.06245 0.00994089 0.00989255 7.40568e-05 0.0098481 1.71494e-07 275.762 
-0.35 -0.87 2.37784 -0.705494 0.00987034 0.00964387 -7.94888e-06 0.00980691 1.7142e-07 274.727 
-0.39 -0.85 -0.0160621 0.854584 0.00987025 0.0100262 0.000110742 0.00989667 1.73995e-07 273.139 
-0.33 -0.87 -0.696752 0.785077 0.00987981 0.00975883 -6.27598e-05 0.00978977 1.71554e-07 274.032 
-0.37 -0.85 -1.42704 0.994743 0.00973128 0.00994387 -2.63417e-05 0.00984254 1.72166e-07 274.53 
-0.35 -0.85 0.503851 -1.61216 0.00986615 0.00965134 -2.47736e-05 0.00976668 1.71792e-07 273.007 
-0.33 -0.85 -3.92072 4.28926 0.00949937 0.00960948 7.52271e-05 0.0095116 1.71503e-07 266.325 
-0.31 -0.99 1.93779 1.24253 0.00973992 0.00974422 1.15629e-05 0.00973646 1.71367e-07 272.837 
-0.29 -0.99 -0.322507 0.724823 0.00984179 0.00973469 -7.82465e-05 0.00978258 1.70626e-07 275.321 
-0.27 -0.99 3.64952 1.25623 0.00977229 0.00980313 -2.39589e-05 0.00974267 1.70254e-07 274.797 
-0.31 -0.97 4.08671 0.159127 0.00963806 0.0096707 -3.99515e-05 0.00972064 1.69989e-07 274.602 
-0.29 -0.97 -1.40027 2.31138 0.00986417 0.00959889 -2.30446e-05 0.00968987 1.6993e-07 273.828 
-0.33 -0.95 -2.1678 -0.256288 0.00973127 0.00963343 -2.9384e-05 0.00970308 1.71131e-07 272.277 
-0.27 -0.97 -0.719236 -0.0188074 0.00985735 0.00968709 5.27426e-05 0.0097395 1.72956e-07 270.415 
-0.31 -0.95 2.66484 -1.58521 0.009865 0.00973243 -7.81981e-05 0.00972911 1.72095e-07 271.477 
-0.29 -0.95 -2.77647 0.25635 0.00973287 0.00981734 3.35107e-05 0.0097365 1.7183e-07 272.103 
-0.33 -0.93 0.142908 0.645781 0.00976331 0.00960365 9.30787e-05 0.00972545 1.71511e-07 272.301 
-0.27 -0.95 2.03913 0.236217 0.00983337 0.00976448 -1.44959e-05 0.00973732 1.71983e-07 271.885 
-0.31 -0.93 0.7206 -1.43756 0.0097213 0.00990073 -5.97935e-05 0.00979555 1.71221e-07 274.728 
-0.29 -0.93 -3.09229 -1.27812 0.00966209 0.00973381 -8.33791e-05 0.00967551 1.72577e-07 269.229 
-0.27 -0.93 -3.40157 0.50951 0.00977474 0.0096653 6.25294e-05 0.00966487 1.70305e-07 272.521 
-0.31 -0.91 -0.200355 -1.10806 0.00963692 0.00967033 -5.98528e-05 0.00970236 1.70568e-07 273.156 
-0.29 -0.91 -0.853215 -1.8912 0.00973247 0.00976101 -2.36879e-06 0.00974572 1.71864e-07 272.307 
-0.33 -0.89 -0.571589 2.03312 0.00988256 0.00977715 1.01531e-05 0.00982388 1.72778e-07 273.039 
-0.27 -0.91 -1.71936 0.154696 0.00953455 0.00959922 -6.98073e-05 0.00952174 1.70143e-07 268.741 
-0.31 -0.89 -1.7447 -0.634775 0.00969221 0.00964509 2.11809e-05 0.00968271 1.69913e-07 273.653 
-0.29 -0.89 -2.259 -0.876181 0.00964749 0.00981469 7.80693e-05 0.00968266 1.71811e-07 270.629 
-0.27 -0.89 -2.11402 0.368085 0.00970801 0.00979932 0.000111083 0.00971579 1.7053e-07 273.594 
-0.31 -0.87 -0.00849188 -0.736533 0.0097878 0.00967237 -0.000125045 0.00971906 1.71199e-07 272.618 
-0.29 -0.87 -0.53129 0.669606 0.00980897 0.00980439 6.48196e-05 0.00980846 1.71574e-07 274.523 
-0.27 -0.87 -0.440482 -0.838083 0.00993315 0.00980594 5.00924e-05 0.00977665 1.71988e-07 272.975 
-0.31 -0.85 -1.54204 -0.52223 0.00978786 0.00959139 -5.16674e-07 0.00972375 1.72542e-07 270.626 
-0.29 -0.85 -4.13197 2.11536 0.00977536 0.00959784 -2.76787e-05 0.00961779 1.72095e-07 268.373 
-0.27 -0.85 -1.70994 2.2611 0.00962843 0.00964768 8.7683e-05 0.00965412 1.68542e-07 275.065 
-0.25 -0.99 2.07471 -0.414503 0.00967362 0.00970113 -6.06468e-05 0.00964545 1.70192e-07 272.153 
-0.25 -0.97 1.85945 -3.04017 0.00981747 0.00992979 2.58447e-05 0.00986777 1.72491e-07 274.716 
-0.25 -0.95 -1.99207 -0.906529 0.00987997 0.00964472 2.11922e-05 0.00971244 1.71093e-07 272.6 
-0.25 -0.93 -3.08534 -1.2724 0.009811 0.00974099 -6.29265e-05 0.00980837 1.72601e-07 272.888 
-0.25 -0.91 -0.904204 -0.745378 0.00969575 0.00971731 -0.000100352 0.00975877 1.71811e-07 272.756 
-0.25 -0.89 -1.89696 -1.03662 0.00984638 0.0097899 1.79789e-05 0.0097905 1.72089e-07 273.201 
-0.25 -0.87 -2.67603 0.547367 0.00992261 0.00988505 8.60087e-05 0.00986221 1.72021e-07 275.311 
-0.25 -0.85 -0.942025 3.61012 0.00965556 0.00956444 7.17924e-05 0.00964088 1.69573e-07 273.018 
-0.25 -0.83 -2.53774 -0.455747 0.0098128 0.00954555 -1.94096e-05 0.00969142 1.71653e-07 271.122 
-0.33 -0.81 2.66523 1.25991 0.00995323 0.00987771 1.78573e-05 0.00985309 1.74118e-07 271.743 
-0.31 -0.81 -3.15066 0.627607 0.00991154 0.00984665 3.26993e-05 0.0098151 1.71434e-07 274.935 
-0.29 -0.81 1.10735 -0.525817 0.00971648 0.00976313 -0.000103756 0.00974704 1.70827e-07 273.997 
-0.27 -0.81 -1.09336 -1.84089 0.00971539 0.00958419 5.57786e-05 0.00968938 1.71158e-07 271.85 
-0.31 -0.79 2.14491 0.456072 0.00980908 0.00983298 0.000116447 0.00990426 1.71601e-07 277.162 
-0.29 -0.79 2.66504 1.724 0.00960202 0.0096714 -0.000106623 0.00963518 1.68772e-07 274.15 
-0.33 -0.77 2.93783 -0.65297 0.00978511 0.00981891 2.64623e-06 0.00978393 1.72644e-07 272.14 
-0.27 -0.79 0.196283 -3.22071 0.00956219 0.00948606 -1.41974e-05 0.00948187 1.68654e-07 269.977 
-0.31 -0.77 2.77292 1.75252 0.00966726 0.0096484 7.78582e-05 0.0097298 1.71138e-07 273.017 
-0.29 -0.77 1.42454 4.08996 0.00962134 0.00958347 9.10223e-05 0.00967328 1.72161e-07 269.817 
-0.27 -0.77 -1.9239 -1.95488 0.00960791 0.00969111 2.93492e-06 0.00971842 1.7225e-07 270.935 
-0.31 -0.75 -0.963218 3.6169 0.00958651 0.00972477 -5.0731e-06 0.00967662 1.71923e-07 270.284 
-0.29 -0.75 -1.91676 3.07761 0.00979011 0.00976289 0.00018694 0.00976448 1.72428e-07 271.939 
-0.27 -0.75 1.67901 -1.81074 0.0097864 0.00975103 -6.11786e-05 0.00986042 1.70641e-07 277.487 
-0.49 -0.83 -0.994428 -2.11451 0.00967318 0.00966653 -2.44991e-05 0.00973061 1.70334e-07 274.328 
-0.47 -0.83 -1.02844 -2.4849 0.00959569 0.00972282 2.98444e-05 0.00969445 1.70446e-07 273.129 
-0.45 -0.83 0.795662 -2.76198 0.00974313 0.00954768 -1.49849e-05 0.00969372 1.69415e-07 274.77 
-0.49 -0.81 -0.167732 -0.70761 0.00967904 0.00968902 -3.52762e-05 0.00970061 1.69414e-07 274.966 
-0.43 -0.83 -2.51203 -2.91574 0.00985378 0.00959301 4.24552e-05 0.00970424 1.70022e-07 274.086 
-0.47 -0.81 -0.442646 -0.751489 0.00977697 0.00976496 1.90971e-05 0.00975446 1.73309e-07 270.279 
-0.45 -0.81 -1.82943 1.0334 0.00968312 0.00962067 -1.741e-05 0.0096584 1.70898e-07 271.393 
-0.49 -0.79 -2.72345 1.03525 0.00949492 0.00963704 1.05855e-05 0.00956659 1.6948e-07 271.063 
-0.43 -0.81 -2.61454 0.249928 0.00974031 0.00958128 4.71761e-05 0.00960045 1.68454e-07 273.679 
-0.47 -0.79 -3.21139 2.56186 0.00965294 0.00962877 -4.10257e-05 0.00966255 1.718e-07 270.084 
-0.41 -0.81 -2.24011 -0.109535 0.00968686 0.00976126 4.19323e-05 0.00972917 1.72195e-07 271.323 
-0.45 -0.79 -3.98826 2.09907 0.00974769 0.00971211 1.47711e-05 0.00969054 1.70983e-07 272.16 
-0.49 -0.77 1.20719 -0.992845 0.00967986 0.00967316 4.86066e-05 0.00967956 1.71801e-07 270.558 
-0.39 -0.81 -0.450686 -3.37584 0.00965805 0.00975911 6.79961e-05 0.0096474 1.70756e-07 271.31 
-0.43 -0.79 -1.35479 -4.79092 0.00984487 0.00961707 -0.000116768 0.00973496 1.71012e-07 273.362 
-0.47 -0.77 3.89945 1.62888 0.00981095 0.00962002 -0.000110438 0.00967406 1.70859e-07 271.894 
-0.37 -0.81 -1.93954 2.2353 0.0097238 0.00953534 -0.000117649 0.00964658 1.70069e-07 272.381 
-0.41 -0.79 0.375789 -0.971516 0.0099199 0.00992751 -4.05031e-06 0.00991759 1.72889e-07 275.467 
-0.45 -0.77 1.36696 2.45483 0.00977473 0.00953176 -3.87378e-05 0.00963024 1.70267e-07 271.604 
-0.35 -0.81 -0.103341 -0.555941 0.00984925 0.00962556 1.97722e-05 0.00974509 1.70719e-07 274.115 
-0.39 -0.79 1.84651 0.691167 0.00955402 0.0096677 -4.24513e-06 0.0096603 1.70073e-07 272.763 
-0.43 -0.77 -2.41888 0.861272 0.00967671 0.00971461 -6.00324e-05 0.00967745 1.71292e-07 271.302 
-0.37 -0.79 0.706095 3.35977 0.00998482 0.00957867 -7.0112e-05 0.00982636 1.7265e-07 273.31 
-0.41 -0.77 0.585735 -0.367432 0.00987668 0.0098159 3.95205e-05 0.00984567 1.7343e-07 272.617 
-0.35 -0.79 0.435566 -0.037734 0.00993129 0.00983168 0.00018234 0.00987265 1.7292e-07 274.169 
-0.39 -0.77 -1.96678 -0.877257 0.0096766 0.00969925 -2.08686e-05 0.00973029 1.74358e-07 267.987 
-0.43 -0.75 0.644371 0.71875 0.00979643 0.00977411 5.52688e-05 0.00978251 1.72733e-07 271.96 
-0.33 -0.79 3.67644 0.28472 0.00990271 0.00980198 5.5993e-05 0.00989113 1.73953e-07 273.051 
-0.37 -0.77 2.32834 0.802402 0.0100114 0.00971878 -5.31203e-05 0.00990672 1.73678e-07 273.914 
-0.41 -0.75 -1.31575 2.07033 0.00983061 0.00986235 0.000122367 0.00984491 1.71421e-07 275.79 
-0.35 -0.77 2.09967 1.80037 0.00964643 0.00972192 8.90461e-05 0.00977216 1.72107e-07 272.66 
-0.39 -0.75 2.24236 -0.441209 0.00965094 0.00955566 -4.03062e-06 0.00969697 1.70425e-07 273.234 
-0.49 -0.75 0.172142 -0.287491 0.00955065 0.00968343 3.44632e-05 0.00968028 1.7245e-07 269.56 
-0.47 -0.75 -0.531989 -1.15289 0.00969527 0.00966499 2.08865e-05 0.00968143 1.71076e-07 271.757 
-0.45 -0.75 0.292935 1.4882 0.00961443 0.00971688 -6.83637e-05 0.00974227 1.69871e-07 275.405 
-0.49 -0.73 0.640977 -4.42412 0.00981512 0.00973512 0.000124542 0.00974935 1.6959e-07 276.061 
-0.47 -0.73 -0.895706 1.93211 0.00973938 0.00963355 1.41108e-05 0.00970062 1.70128e-07 273.813 
-0.45 -0.73 -0.278985 -0.574862 0.009692 0.00966704 -3.7475e-05 0.00972486 1.7059e-07 273.753 
-0.49 -0.71 -3.23961 -1.67524 0.00945021 0.00977362 0.000104856 0.00961995 1.69167e-07 273.079 
-0.43 -0.73 -3.77901 1.76175 0.00971922 0.00987637 -2.85834e-05 0.00973083 1.70451e-07 274.145 
-0.47 -0.71 0.984427 -0.884366 0.00978647 0.0099269 -8.46968e-05 0.0097999 1.70979e-07 275.239 
-0.37 -0.75 1.16162 -2.04453 0.00955185 0.00968 7.36802e-06 0.00960395 1.6895e-07 272.975 
-0.41 -0.73 0.383457 2.44417 0.0094857 0.00975205 -0.000132074 0.00962507 1.69887e-07 272.066 
-0.45 -0.71 2.89875 1.40037 0.00980923 0.00969072 -0.000161058 0.00974947 1.72042e-07 272.13 
-0.49 -0.69 -0.471366 -0.833521 0.00973491 0.0097083 -2.06874e-05 0.00973416 1.7154e-07 272.498 
-0.35 -0.75 2.81069 1.45022 0.00973366 0.00967707 5.16185e-05 0.00976434 1.7102e-07 274.173 
-0.39 -0.73 -1.39048 1.9951 0.00983694 0.00962108 3.53878e-05 0.00974729 1.71523e-07 272.892 
-0.43 -0.71 0.280557 0.273533 0.00979581 0.00963565 -6.36471e-05 0.00971247 1.70892e-07 272.922 
-0.47 -0.69 0.154265 -0.515247 0.00981076 0.00990079 4.95948e-05 0.0098086 1.71703e-07 274.321 
-0.37 -0.73 -4.01646 0.958101 0.00976993 0.00969312 2.94106e-05 0.00975664 1.6944e-07 276.513 
-0.41 -0.71 3.59941 2.96885 0.00974906 0.00985527 -6.81962e-05 0.00983852 1.72777e-07 273.447 
-0.45 -0.69 -0.166998 2.01862 0.00973237 0.00958779 -0.000108648 0.00971595 1.72324e-07 270.751 
-0.35 -0.73 -1.51899 -1.0662 0.00952063 0.00951743 2.36049e-05 0.00956925 1.69367e-07 271.318 
-0.39 -0.71 -0.900085 -0.438394 0.0099248 0.0098465 4.91128e-05 0.00985786 1.72817e-07 273.922 
-0.43 -0.69 1.39307 1.74279 0.0098739 0.00967302 -8.67581e-05 0.00974344 1.71527e-07 272.779 
-0.33 -0.73 0.7668 0.855109 0.00954153 0.0096836 0.000134845 0.00957146 1.69277e-07 271.525 
-0.37 -0.71 0.218478 4.00004 0.00981193 0.00968959 8.85878e-05 0.00974885 1.70767e-07 274.145 
-0.41 -0.69 1.41826 1.55814 0.00991872 0.00979605 -1.48376e-05 0.00985894 1.72926e-07 273.78 
-0.35 -0.71 1.40377 -3.31138 0.00958994 0.00935324 0.000121995 0.00947018 1.68282e-07 270.24 
-0.39 -0.69 -0.180899 -3.97186 0.00971807 0.00955733 6.15928e-05 0.00963718 1.70268e-07 271.799 
-0.37 -0.69 3.34546 0.930489 0.00955084 0.00953312 -2.68587e-05 0.00959147 1.69041e-07 272.474 
-0.35 -0.69 -1.31714 0.203795 0.00990807 0.00963546 1.36443e-05 0.00973915 1.70417e-07 274.435 
-0.35 -0.67 -0.598591 3.29291 0.00969475 0.00961432 -6.47534e-05 0.0096989 1.72047e-07 270.71 
-0.33 -0.67 0.614796 0.491621 0.00965578 0.00981107 5.56431e-05 0.00976373 1.7114e-07 273.965 
-0.33 -0.75 0.437144 0.848815 0.0098448 0.0096947 2.71712e-05 0.00982705 1.71912e-07 274.503 
-0.31 -0.73 -2.18917 2.97189 0.00973306 0.0096348 -5.7142e-05 0.00975053 1.70577e-07 274.497 
-0.29 -0.73 0.0671746 0.933009 0.00968819 0.00969601 3.24962e-05 0.00977312 1.72234e-07 272.486 
-0.33 -0.71 -4.58495 0.170725 0.00966543 0.00971465 -7.13324e-05 0.00968571 1.70957e-07 272.067 
-0.27 -0.73 -0.624757 0.838398 0.00975818 0.00987017 5.56819e-05 0.0097945 1.72634e-07 272.45 
-0.31 -0.71 1.06516 1.6105 0.00964918 0.00946377 1.45688e-05 0.00959285 1.70835e-07 269.65 
-0.29 -0.71 2.35021 1.17047 0.00974489 0.00982487 8.05553e-05 0.00981614 1.72191e-07 273.753 
-0.33 -0.69 -3.70483 -2.84771 0.00986132 0.00960933 -4.88295e-06 0.00969772 1.71026e-07 272.293 
-0.27 -0.71 -0.232055 1.40435 0.00959703 0.00973155 4.50456e-05 0.00969633 1.71647e-07 271.269 
-0.31 -0.69 -3.39376 1.13525 0.00966769 0.00961393 -6.65899e-05 0.00969613 1.70629e-07 272.882 
-0.29 -0.69 0.657337 1.53459 0.00952931 0.00955635 -1.2919e-05 0.00960738 1.70007e-07 271.375 
-0.27 -0.69 0.245732 1.94839 0.0097823 0.00984341 -9.17779e-05 0.00982396 1.72919e-07 272.819 
-0.31 -0.67 2.31734 1.44983 0.00946975 0.00968111 2.7667e-06 0.0095913 1.68334e-07 273.612 
-0.29 -0.67 -0.873823 -0.268926 0.00980406 0.00975335 2.88643e-05 0.00977277 1.72682e-07 271.77 
-0.41 -0.83 -1.75482 -1.73984 0.0100777 0.00993748 -0.000129986 0.0100621 1.75797e-07 274.857 
-0.39 -0.83 -1.38316 -0.230927 0.00975814 0.00974875 0.000116279 0.00969478 1.69754e-07 274.251 
-0.37 -0.83 0.328944 0.491102 0.0097943 0.00969295 -1.5486e-05 0.00973621 1.72086e-07 271.69 
-0.35 -0.83 0.711749 -2.47285 0.00991447 0.009698 8.04016e-05 0.00981285 1.73753e-07 271.202 
-0.33 -0.83 -0.654808 -0.515636 0.00987955 0.00979943 0.000136153 0.00983289 1.75056e-07 269.733 
-0.31 -0.83 1.10648 -2.45711 0.00990389 0.0097493 3.32673e-05 0.00974342 1.71262e-07 273.2 
-0.29 -0.83 -0.93517 -0.552998 0.009955 0.00949462 -5.10025e-05 0.00978118 1.73445e-07 270.808 
-0.27 -0.83 -0.521018 0.683889 0.0096754 0.00930997 -7.08666e-05 0.00949141 1.68372e-07 270.702 
-0.27 -0.67 -2.5671 3.66868 0.0098842 0.00965262 4.21005e-05 0.00974012 1.7034e-07 274.585 
-0.25 -0.67 0.296359 2.13321 0.00965367 0.00960091 -6.11408e-05 0.00961502 1.70488e-07 270.823 
-0.25 -0.81 0.733942 2.10847 0.00966845 0.00966036 4.73238e-05 0.00964784 1.69017e-07 274.113 
-0.25 -0.79 -1.26016 -0.467938 0.00990167 0.00989267 -1.72963e-05 0.00984715 1.73236e-07 272.963 
-0.35 -0.55 -1.53045 -1.31538 0.00969435 0.00976081 8.02077e-05 0.00972272 1.71171e-07 272.765 
-0.39 -0.53 -4.44181 1.42786 0.00979416 0.00972344 2.85798e-05 0.00968891 1.70152e-07 273.444 
-0.37 -0.57 -0.661108 1.79659 0.00978449 0.00972142 -9.78876e-06 0.00977458 1.71907e-07 273.045 
-0.41 -0.55 -0.0723747 -0.753308 0.0097019 0.0097942 -1.94629e-05 0.00978248 1.72038e-07 273.058 
-0.45 -0.53 -0.563162 -1.03593 0.00991877 0.00984215 -0.000104187 0.00986111 1.71714e-07 275.772 
-0.35 -0.57 1.24184 -1.71135 0.00972299 0.00972933 -1.55807e-05 0.00972841 1.72119e-07 271.422 
-0.39 -0.55 -4.55355 -1.13319 0.00961722 0.00968896 -8.00342e-05 0.00969831 1.69894e-07 274.125 
-0.43 -0.53 2.45676 -0.102909 0.00987865 0.0097604 0.000118725 0.00982897 1.72539e-07 273.559 
-0.47 -0.51 0.288095 2.92796 0.0100242 0.00979273 0.000111237 0.00985081 1.72773e-07 273.795 
-0.37 -0.55 0.188745 1.66744 0.00989953 0.00978579 -0.000100765 0.00979713 1.72946e-07 272.031 
-0.41 -0.53 1.90387 -0.730445 0.00987288 0.0097743 2.72467e-07 0.00975418 1.70595e-07 274.572 
-0.45 -0.51 -0.310218 -0.853458 0.00986928 0.00967791 -3.36839e-05 0.00973116 1.71278e-07 272.83 
-0.37 -0.53 -1.91439 2.0163 0.00973983 0.00972341 0.000105876 0.00959942 1.69329e-07 272.236 
-0.41 -0.51 -1.57979 -1.23799 0.00962332 0.00969867 -1.66351e-05 0.00961976 1.69741e-07 272.15 
-0.35 -0.53 -0.675959 0.0105587 0.00979975 0.00965568 -2.859e-05 0.00968163 1.71526e-07 271.049 
-0.39 -0.51 -1.02431 3.33733 0.00958927 0.00971225 -2.41172e-05 0.00957663 1.69094e-07 271.966 
-0.37 -0.51 -1.00628 1.49237 0.00977056 0.00977698 -8.7533e-05 0.00975487 1.72458e-07 271.624 
-0.35 -0.51 -0.0237019 -0.433843 0.0095454 0.00960403 -7.05415e-06 0.00953815 1.69893e-07 269.599 
-0.49 -0.65 2.70131 1.00962 0.00971285 0.00977134 -3.53258e-05 0.009758 1.71353e-07 273.463 
-0.47 -0.65 -0.715363 0.687941 0.00988163 0.00981298 2.97318e-05 0.00979874 1.71805e-07 273.882 
-0.45 -0.65 -0.967389 4.72335 0.00998369 0.00964674 -9.04733e-06 0.00982291 1.73348e-07 272.114 
-0.49 -0.63 -1.02628 -1.5315 0.00967402 0.00961933 -5.77454e-05 0.00968662 1.71318e-07 271.519 
-0.43 -0.65 -0.134246 -0.503845 0.00987377 0.00973274 -3.61369e-05 0.00979212 1.72695e-07 272.287 
-0.47 -0.63 0.0240989 -1.20354 0.00986902 0.00989506 4.24455e-05 0.00983424 1.73067e-07 272.871 
-0.41 -0.65 -0.334659 0.48182 0.00983665 0.00965629 5.99299e-05 0.00972274 1.7111e-07 272.862 
-0.45 -0.63 -0.689132 1.05515 0.00976989 0.00962136 -8.56343e-06 0.00968114 1.70669e-07 272.397 
-0.49 -0.61 1.92065 -0.987093 0.00987234 0.00980622 -2.84334e-05 0.00981696 1.71281e-07 275.231 
-0.39 -0.65 1.89114 0.816487 0.00976405 0.00966129 -3.36901e-05 0.00978 1.72618e-07 272.072 
-0.43 -0.63 5.0561 -1.00681 0.00981775 0.00988825 2.36501e-05 0.00989765 1.72902e-07 274.892 
-0.47 -0.61 -1.36564 1.50896 0.00965391 0.00971516 3.87833e-05 0.00971525 1.69567e-07 275.133 
-0.37 -0.65 0.0276468 0.0792063 0.00981407 0.0097559 0.000131828 0.0097575 1.72405e-07 271.781 
-0.41 -0.63 1.3762 1.86473 0.00977302 0.00968832 0.000139837 0.00972963 1.7285e-07 270.306 
-0.45 -0.61 -3.63177 2.32462 0.00970067 0.00984162 1.79885e-05 0.00982851 1.73385e-07 272.211 
-0.49 -0.59 1.52336 -4.44791 0.00953522 0.00966802 -3.18008e-05 0.00962449 1.70168e-07 271.6 
-0.35 -0.65 -0.699098 0.577861 0.00968216 0.00984992 9.03395e-05 0.00975408 1.7216e-07 272.072 
-0.39 -0.63 -1.11049 0.0533044 0.00977268 0.00974195 -3.53103e-05 0.0099243 1.73758e-07 274.275 
-0.43 -0.61 -1.47755 0.896311 0.00971707 0.00968163 0.000128998 0.00975662 1.71946e-07 272.482 
-0.47 -0.59 1.37669 0.94181 0.0100186 0.00980347 2.49756e-05 0.00986588 1.73195e-07 273.546 
-0.37 -0.63 0.0722437 -2.55586 0.0098098 0.00956469 6.35544e-05 0.00980606 1.72452e-07 273.059 
-0.41 -0.61 0.61116 2.08933 0.00982556 0.00991834 8.08207e-05 0.0097725 1.7207e-07 272.729 
-0.45 -0.59 0.759357 -0.894432 0.00978451 0.00971029 1.84265e-05 0.00976672 1.71294e-07 273.802 
-0.49 -0.57 1.35532 -1.43181 0.00967125 0.00951376 5.57929e-05 0.0094945 1.68649e-07 270.345 
-0.35 -0.63 -1.6754 -4.65268 0.00985525 0.00978599 7.13007e-05 0.00978957 1.7373e-07 270.595 
-0.39 -0.61 -0.525352 -2.03229 0.0097968 0.00971441 -2.14231e-05 0.00972974 1.70651e-07 273.793 
-0.43 -0.59 0.618095 1.6357 0.00989618 0.00960539 -4.18631e-05 0.00983181 1.72451e-07 273.778 
-0.47 -0.57 -0.145765 -2.81772 0.00971973 0.00965284 7.86744e-05 0.00964794 1.70598e-07 271.576 
-0.37 -0.61 1.9927 -1.05396 0.00984777 0.00963002 -3.73317e-06 0.00971557 1.70884e-07 273.022 
-0.41 -0.59 1.10266 0.752113 0.00977643 0.00965428 9.53238e-05 0.00976292 1.72018e-07 272.544 
-0.45 -0.57 -2.2558 -2.20972 0.00979655 0.00972379 -7.1367e-06 0.00975931 1.70891e-07 274.24 
-0.49 -0.55 -1.15998 0.994676 0.00997596 0.00974339 -4.89524e-05 0.0098516 1.73151e-07 273.219 
-0.35 -0.61 -2.41697 -1.16132 0.00978044 0.00968778 4.05229e-05 0.00969367 1.70276e-07 273.379 
-0.39 -0.59 0.805191 -0.548803 0.00967135 0.00949841 6.36369e-05 0.00958676 1.71261e-07 268.809 
-0.43 -0.57 -0.903758 0.650834 0.00987586 0.0097344 2.16281e-06 0.00980868 1.70503e-07 276.255 
-0.47 -0.55 -0.390715 0.897881 0.00995852 0.00963112 -8.66676e-05 0.00979751 1.71233e-07 274.764 
-0.33 -0.61 -4.69383 0.390951 0.0097454 0.00987769 0.000129164 0.00976882 1.71582e-07 273.401 
-0.37 -0.59 -2.02775 1.05872 0.00981068 0.00983432 5.68115e-05 0.00990654 1.73963e-07 273.461 
-0.41 -0.57 -3.16587 3.71274 0.00967496 0.00967935 -9.06067e-05 0.00979647 1.72406e-07 272.864 
-0.45 -0.55 -1.20673 -2.39938 0.0098141 0.00977585 -0.00010021 0.00979476 1.70661e-07 275.607 
-0.49 -0.53 -0.3833 0.060083 0.00988488 0.0095449 3.69935e-05 0.00969126 1.71892e-07 270.742 
-0.35 -0.59 -0.598979 2.1805 0.00978413 0.00980744 -6.51293e-05 0.00988065 1.72782e-07 274.61 
-0.39 -0.57 -0.850882 2.44229 0.00964393 0.00959808 -9.19839e-05 0.00972349 1.71327e-07 272.538 
-0.43 -0.55 -0.801481 2.38557 0.00964094 0.00966118 7.36828e-05 0.00972276 1.70832e-07 273.307 
-0.47 -0.53 -1.95752 -3.06504 0.00986534 0.00981236 5.91944e-05 0.00993422 1.7379e-07 274.498 
-0.29 -0.57 -1.02093 -0.846366 0.00971934 0.00946075 -4.9328e-05 0.00958946 1.69593e-07 271.529 
-0.33 -0.55 -3.29413 0.398713 0.00976182 0.00969327 4.78992e-05 0.00972023 1.71591e-07 272.027 
-0.29 -0.61 1.18796 1.31216 0.00990009 0.00963192 -2.65392e-05 0.00977047 1.71218e-07 274.03 
-0.33 -0.59 -5.86278 -0.845556 0.0099336 0.00981899 6.90402e-05 0.00988679 1.72983e-07 274.462 
-0.27 -0.61 -0.271298 -1.16517 0.00995167 0.00954852 1.72424e-05 0.00980212 1.7009e-07 276.739 
-0.31 -0.59 -0.971077 2.9094 0.00991276 0.00962618 3.6738e-05 0.00981005 1.71153e-07 275.243 
-0.29 -0.59 -0.926385 0.414158 0.00970629 0.00963605 -0.000127675 0.00966337 1.7107e-07 271.259 
-0.33 -0.57 -0.840364 -0.657709 0.00980079 0.00975291 -2.89899e-05 0.00981232 1.72751e-07 272.76 
-0.27 -0.59 0.242569 -1.91977 0.00963043 0.00975543 1.57035e-05 0.00973241 1.70172e-07 274.639 
-0.31 -0.57 -2.41578 1.08414 0.00982878 0.00980849 1.92604e-06 0.00980835 1.7058e-07 276.12 
-0.27 -0.57 -1.75469 -1.27654 0.00965344 0.00971254 -4.37061e-05 0.00974883 1.72434e-07 271.494 
-0.31 -0.55 1.35847 5.0764 0.009774 0.00985165 2.65366e-05 0.00982932 1.7095e-07 276.111 
-0.29 -0.55 1.04431 0.303878 0.00979108 0.00979955 -2.80724e-06 0.00975285 1.71436e-07 273.186 
-0.33 -0.53 -0.542996 0.93985 0.0098826 0.00982215 7.5455e-05 0.00978401 1.71532e-07 273.905 
-0.27 -0.55 2.49235 -1.67836 0.00948606 0.00986043 3.97348e-05 0.00967075 1.71452e-07 270.862 
-0.31 -0.53 -0.691831 1.63992 0.00970096 0.00965666 3.30978e-05 0.00966645 1.71669e-07 270.399 
-0.29 -0.53 0.606737 -1.28192 0.00980157 0.0098083 -9.02504e-05 0.00971973 1.70677e-07 273.47 
-0.33 -0.51 0.44327 0.73348 0.00975564 0.00962927 -6.15263e-05 0.00971253 1.70996e-07 272.758 
-0.27 -0.53 0.735967 0.536491 0.00958865 0.0097522 0.000141506 0.00967269 1.71826e-07 270.327 
-0.31 -0.51 -0.259602 1.96628 0.0098009 0.00968881 -0.00018653 0.00970639 1.70599e-07 273.22 
-0.29 -0.51 1.11159 0.675119 0.00965145 0.0098087 -8.7736e-05 0.00981375 1.71406e-07 274.941 
-0.27 -0.51 -2.37046 5.13738 0.00977464 0.0097767 0.000110253 0.00977597 1.72127e-07 272.735 
-0.33 -0.65 -1.14749 -1.80139 0.00998108 0.00976129 -1.84074e-05 0.00981628 1.7185e-07 274.302 
-0.31 -0.65 -1.41404 0.721955 0.00970532 0.00973351 -1.11593e-05 0.00972579 1.7122e-07 272.772 
-0.29 -0.65 1.37548 0.637431 0.00968748 0.00951286 -5.68819e-05 0.0096789 1.70339e-07 272.861 
-0.33 -0.63 -1.26881 -0.93116 0.0098052 0.00987088 9.1087e-05 0.00980567 1.70223e-07 276.624 
-0.27 -0.65 2.72443 -2.06338 0.00979316 0.00963606 6.78183e-06 0.00977181 1.70974e-07 274.458 
-0.31 -0.63 -2.55101 0.800745 0.0096217 0.0095195 -4.01328e-05 0.00957312 1.6716e-07 275.012 
-0.25 -0.65 -0.150427 0.832511 0.0100648 0.00952462 6.01391e-06 0.00982021 1.72917e-07 272.718 
-0.29 -0.63 0.812484 0.625751 0.00983465 0.00979115 -7.53762e-05 0.00983757 1.71881e-07 274.847 
-0.27 -0.63 -3.04843 -0.127649 0.00977402 0.00957316 -3.9953e-05 0.00975003 1.70745e-07 274.213 
-0.31 -0.61 1.38177 2.43389 0.00976267 0.00975801 4.23089e-05 0.00982065 1.72302e-07 273.703 
-0.49 -0.67 1.20843 1.5087 0.00970905 0.00988413 0.00014804 0.00984891 1.74923e-07 270.378 
-0.47 -0.67 -0.102554 -2.70836 0.00972108 0.00986878 1.38345e-06 0.00978341 1.72493e-07 272.363 
-0.45 -0.67 0.689301 6.54109 0.00973937 0.00966766 -0.000112335 0.00976895 1.71778e-07 273.093 
-0.43 -0.67 -0.238862 0.519946 0.0100119 0.00975845 -2.52965e-05 0.00986726 1.72996e-07 273.899 
-0.41 -0.67 0.0597887 1.55985 0.00971232 0.00957832 5.28479e-05 0.00959936 1.70175e-07 270.88 
-0.39 -0.67 0.43232 3.30492 0.00949252 0.00960333 7.49921e-05 0.00960102 1.68038e-07 274.372 
-0.37 -0.67 0.0454525 0.823849 0.00980402 0.00968155 -8.59769e-05 0.00968858 1.71783e-07 270.838 
-0.43 -0.51 -1.40568 -1.14775 0.00985348 0.00983291 -0.00010325 0.0098566 1.72086e-07 275.05 