ITEM: TIMESTEP
972500
ITEM: NUMBER OF CELLS
5000
ITEM: BOX BOUNDS ss ss pp
-0.5 0.5
-1 1
-0.5 0.5
ITEM: CELLS xc yc f_U[*] f_V[*] f_Tau[1] f_Tau[2] f_Tau[3] f_Press[*] f_Mrho[*] f_Ttra[*] 
-0.49 -0.99 -0.0779552 0.140098 0.00975485 0.00972461 1.17105e-05 0.00974258 1.71568e-07 272.69 
-0.47 -0.99 -0.159339 -0.0572856 0.00974057 0.00971178 9.58602e-06 0.00973354 1.71446e-07 272.63 
-0.45 -0.99 -0.162137 -0.000884216 0.00974295 0.00972714 5.84804e-06 0.00973913 1.7138e-07 272.891 
-0.49 -0.97 -0.00191607 0.142807 0.00974351 0.00971584 1.14227e-05 0.00973193 1.71311e-07 272.8 
-0.43 -0.99 -0.23685 0.0141438 0.00973627 0.00972758 7.7072e-06 0.00973935 1.71314e-07 273.002 
-0.47 -0.97 -0.0538925 0.085222 0.00974418 0.00971438 1.44622e-05 0.00973276 1.71307e-07 272.83 
-0.41 -0.99 -0.110365 -0.0606688 0.00973209 0.00972297 4.27388e-06 0.00973204 1.7126e-07 272.885 
-0.45 -0.97 -0.0914235 -0.0213757 0.00974256 0.00972973 7.97938e-06 0.00974254 1.71348e-07 273.039 
-0.49 -0.95 0.0506205 0.093253 0.00973137 0.00970256 4.16219e-06 0.00972393 1.71107e-07 272.901 
-0.39 -0.99 -0.149246 0.093377 0.00973784 0.00972535 -1.66571e-06 0.00973006 1.71e-07 273.244 
-0.43 -0.97 0.0728089 0.105099 0.00974624 0.00972832 5.43818e-06 0.00974144 1.71349e-07 273.006 
-0.47 -0.95 0.106744 0.152732 0.00974871 0.00972133 2.91423e-06 0.00973315 1.71276e-07 272.89 
-0.37 -0.99 -0.222977 -0.0334214 0.00973876 0.00972974 1.01472e-05 0.0097361 1.71273e-07 272.977 
-0.41 -0.97 -0.125796 -0.148355 0.00974153 0.00972498 5.63198e-06 0.00973524 1.7127e-07 272.958 
-0.45 -0.95 0.193086 -0.177684 0.00975578 0.0097344 6.74783e-06 0.00975 1.71497e-07 273.01 
-0.49 -0.93 -0.0119454 -0.0215311 0.00976315 0.00971417 1.04744e-08 0.00974192 1.7139e-07 272.954 
-0.35 -0.99 -0.0488537 -0.122947 0.00972531 0.00970373 1.08292e-05 0.00971323 1.70848e-07 273.013 
-0.39 -0.97 0.0249167 0.0613343 0.00973394 0.00972219 8.60793e-06 0.00973466 1.71316e-07 272.868 
-0.43 -0.95 0.158291 0.0890283 0.00975567 0.00972316 1.04971e-05 0.00974432 1.71467e-07 272.899 
-0.47 -0.93 0.0810372 0.0208776 0.00975839 0.00971768 5.62708e-07 0.00973821 1.71387e-07 272.855 
-0.33 -0.99 0.0351867 0.0220457 0.00973385 0.00972675 3.65765e-06 0.00972778 1.71183e-07 272.887 
-0.37 -0.97 0.0493558 -0.0560694 0.00973349 0.00972712 5.60525e-06 0.00973772 1.71343e-07 272.911 
-0.41 -0.95 0.0136307 0.0851397 0.0097528 0.00972928 6.17789e-06 0.00974441 1.71477e-07 272.885 
-0.45 -0.93 0.0180084 0.0429542 0.00975423 0.00972586 5.74099e-06 0.00974134 1.71438e-07 272.861 
-0.49 -0.91 0.011738 0.107943 0.00976254 0.00972094 9.95774e-06 0.00974211 1.71278e-07 273.137 
-0.35 -0.97 -0.0359232 -0.0918196 0.00973718 0.00971265 5.97149e-06 0.0097271 1.71112e-07 272.981 
-0.39 -0.95 -0.192674 -0.0464449 0.00975015 0.00972364 6.35139e-06 0.00973857 1.71492e-07 272.697 
-0.43 -0.93 -0.0838105 0.116941 0.00975593 0.00972509 5.54192e-06 0.00973588 1.71283e-07 272.955 
-0.47 -0.91 -0.288621 -0.0296949 0.00975549 0.00971491 3.08465e-06 0.00973434 1.71403e-07 272.721 
-0.33 -0.97 -0.159004 -0.032183 0.00974081 0.00972378 2.57845e-06 0.00973779 1.71398e-07 272.826 
-0.37 -0.95 -0.126135 -0.0684269 0.00975206 0.00972117 1.12033e-05 0.0097415 1.71357e-07 272.995 
-0.41 -0.93 -0.0900429 0.116348 0.00975774 0.00972991 1.35723e-05 0.00973481 1.71278e-07 272.933 
-0.45 -0.91 -0.161004 0.0326115 0.00976203 0.0097195 4.75811e-06 0.00974512 1.71496e-07 272.874 
-0.49 -0.89 -0.0385694 0.136193 0.00976274 0.00972205 7.73833e-06 0.00974435 1.71396e-07 273.013 
-0.35 -0.95 -0.154151 -0.0603959 0.00975487 0.0097226 2.97942e-06 0.00974106 1.71458e-07 272.822 
-0.39 -0.93 0.00504009 -0.103582 0.00975451 0.00972544 7.33278e-06 0.00974014 1.71569e-07 272.62 
-0.43 -0.91 -0.238976 0.109782 0.00975654 0.00972982 8.79917e-06 0.00973976 1.71236e-07 273.14 
-0.47 -0.89 0.0945385 0.136919 0.00975941 0.00972109 7.5321e-06 0.00974169 1.71492e-07 272.785 
-0.37 -0.93 -0.0304853 0.0307797 0.00975685 0.00972284 9.35624e-07 0.00974501 1.71385e-07 273.048 
-0.41 -0.91 -0.127033 0.0272767 0.00976537 0.00972343 3.12351e-06 0.00974198 1.7141e-07 272.924 
-0.45 -0.89 -0.221133 0.188655 0.00975249 0.00971469 -1.66022e-06 0.00973973 1.71372e-07 272.921 
-0.49 -0.87 -0.0440066 0.128764 0.00974668 0.00971624 -8.1482e-07 0.00973119 1.71309e-07 272.782 
-0.35 -0.93 -0.309045 0.0153973 0.00975583 0.00972243 5.99969e-06 0.00973781 1.71458e-07 272.731 
-0.39 -0.91 -0.172563 -0.0623844 0.00977136 0.00973368 1.31555e-05 0.00975495 1.71695e-07 272.834 
-0.43 -0.89 -0.23282 -0.0420212 0.00976457 0.00973577 4.45699e-07 0.00975164 1.7147e-07 273.099 
-0.47 -0.87 0.114635 0.192992 0.00975577 0.00972137 5.21563e-06 0.00973546 1.71396e-07 272.763 
-0.37 -0.91 -0.273907 0.187218 0.0097539 0.00972419 7.53467e-06 0.00973978 1.71615e-07 272.537 
-0.41 -0.89 -0.0969718 0.0247899 0.00975894 0.0097153 2.82772e-06 0.00973969 1.71464e-07 272.774 
-0.45 -0.87 -0.0487009 0.254207 0.00976167 0.00971828 4.55832e-06 0.0097478 1.71477e-07 272.98 
-0.49 -0.85 -0.0265412 0.151391 0.00975591 0.00971832 -4.64114e-08 0.00973598 1.71289e-07 272.949 
-0.35 -0.91 -0.182749 0.120228 0.00974929 0.00972112 5.1444e-06 0.00973666 1.71369e-07 272.84 
-0.39 -0.89 -0.127896 0.118975 0.00975548 0.0097192 1.17962e-05 0.00974378 1.71482e-07 272.86 
-0.43 -0.87 -0.0751376 0.0216952 0.00974549 0.00973154 5.82809e-06 0.00974478 1.71472e-07 272.904 
-0.47 -0.85 -0.199483 0.270549 0.00975473 0.00971668 5.69457e-07 0.00973969 1.7135e-07 272.954 
-0.33 -0.91 -0.210459 -0.189818 0.00974747 0.00971076 1.35483e-05 0.00973158 1.71359e-07 272.713 
-0.37 -0.89 -0.247505 0.0775013 0.00976492 0.00973956 1.85138e-05 0.00975838 1.71619e-07 273.051 
-0.41 -0.87 -0.239889 0.0227795 0.00974959 0.00971836 7.11169e-06 0.00973564 1.71412e-07 272.743 
-0.45 -0.85 -0.111409 0.219379 0.00975312 0.00971534 6.43137e-06 0.00974016 1.71357e-07 272.958 
-0.35 -0.89 -0.283696 0.160196 0.0097632 0.00971556 1.18858e-05 0.0097354 1.71326e-07 272.873 
-0.39 -0.87 -0.237315 0.0843277 0.00975614 0.00971481 3.71365e-06 0.00973775 1.71471e-07 272.708 
-0.43 -0.85 -0.156083 0.0723441 0.00976484 0.00973292 3.38951e-06 0.00974634 1.71567e-07 272.796 
-0.37 -0.87 -0.260868 0.194261 0.00976695 0.00973312 7.4455e-06 0.00974972 1.7154e-07 272.934 
-0.41 -0.85 -0.152415 0.079573 0.00976334 0.00971718 5.78202e-06 0.00974567 1.71624e-07 272.687 
-0.35 -0.87 -0.183959 0.101837 0.00976846 0.00972021 1.15926e-05 0.0097411 1.71358e-07 272.981 
-0.39 -0.85 -0.292819 0.271066 0.00976319 0.00972089 -8.22762e-07 0.0097464 1.71489e-07 272.922 
-0.33 -0.87 -0.34601 -0.0170245 0.00976758 0.00972228 9.92957e-06 0.00974416 1.7139e-07 273.017 
-0.37 -0.85 -0.366754 0.0415176 0.00976089 0.00971945 4.34251e-06 0.00974094 1.7139e-07 272.927 
-0.35 -0.85 -0.274089 0.0779673 0.00976353 0.00972232 1.21479e-05 0.00974231 1.7126e-07 273.172 
-0.33 -0.85 -0.418828 0.351666 0.00976204 0.00972363 1.10066e-05 0.00973905 1.71345e-07 272.945 
-0.31 -0.99 0.094638 -0.0587584 0.0097281 0.00971116 1.11455e-05 0.00972027 1.71194e-07 272.659 
-0.29 -0.99 0.0237573 0.151456 0.00973212 0.00972261 1.12393e-05 0.00973095 1.71269e-07 272.839 
-0.27 -0.99 -0.0836561 -0.055437 0.00974684 0.00972971 8.42269e-06 0.00973359 1.71137e-07 273.124 
-0.31 -0.97 -0.358997 -0.111672 0.00974705 0.00971514 5.07585e-06 0.00973396 1.71347e-07 272.799 
-0.29 -0.97 -0.345671 0.244232 0.00975516 0.00971899 8.66555e-06 0.00974347 1.71538e-07 272.761 
-0.33 -0.95 -0.0651423 0.091549 0.00974969 0.00971895 5.79817e-06 0.00973613 1.71316e-07 272.909 
-0.27 -0.97 -0.26674 -0.0778157 0.00974588 0.00972381 1.29069e-05 0.0097384 1.71433e-07 272.788 
-0.31 -0.95 -0.132813 0.120915 0.00974612 0.00971403 6.4217e-06 0.00973048 1.71302e-07 272.774 
-0.29 -0.95 -0.131867 0.0243655 0.00973903 0.0097074 9.63113e-06 0.00972164 1.71232e-07 272.636 
-0.33 -0.93 -0.31843 0.0449154 0.00975869 0.00971445 4.29602e-06 0.00973506 1.71312e-07 272.886 
-0.27 -0.95 -0.270289 0.0223703 0.00974468 0.00973245 6.34944e-06 0.00974049 1.7142e-07 272.867 
-0.31 -0.93 -0.0766418 0.0159626 0.00975504 0.00971098 1.00312e-05 0.00973431 1.71529e-07 272.52 
-0.29 -0.93 -0.227228 0.169184 0.00975901 0.0097118 7.00385e-06 0.00973614 1.71462e-07 272.677 
-0.27 -0.93 -0.12647 0.0592741 0.00976105 0.00972867 8.58339e-06 0.00974805 1.71615e-07 272.767 
-0.31 -0.91 -0.226898 0.13015 0.00975233 0.00971439 5.7038e-06 0.00973795 1.7145e-07 272.748 
-0.29 -0.91 -0.270635 0.0624272 0.0097513 0.00971024 2.01291e-07 0.00973113 1.71336e-07 272.738 
-0.33 -0.89 -0.308394 -0.152729 0.00976069 0.00972046 7.90551e-06 0.00974068 1.71373e-07 272.947 
-0.27 -0.91 -0.174735 0.0765695 0.00975675 0.00972448 4.45644e-06 0.00973372 1.71441e-07 272.643 
-0.31 -0.89 -0.288466 0.0256445 0.00976475 0.00971619 1.45336e-06 0.00974892 1.71564e-07 272.873 
-0.29 -0.89 -0.186029 0.0163415 0.00975915 0.00971039 4.15061e-06 0.00973956 1.7129e-07 273.046 
-0.27 -0.89 -0.314951 0.216306 0.00975138 0.0097191 1.03256e-05 0.00974365 1.71435e-07 272.931 
-0.31 -0.87 -0.466546 0.0505554 0.00975802 0.00971829 7.43569e-06 0.00973611 1.71413e-07 272.754 
-0.29 -0.87 -0.41423 -0.0330668 0.00975128 0.0097079 9.33849e-06 0.00973486 1.71227e-07 273.015 
-0.27 -0.87 -0.389871 0.268851 0.00975041 0.0097183 1.17416e-05 0.00974018 1.71406e-07 272.88 
-0.31 -0.85 -0.462877 -0.144284 0.00976158 0.00971948 1.87448e-05 0.009742 1.71486e-07 272.804 
-0.29 -0.85 -0.347405 0.0454193 0.00975559 0.00970752 1.21972e-05 0.00974261 1.71465e-07 272.854 
-0.27 -0.85 -0.394932 0.196731 0.00975237 0.00971244 9.22378e-06 0.00973662 1.712e-07 273.108 
-0.25 -0.99 -0.233777 0.115441 0.00974794 0.00973905 1.44931e-05 0.00974243 1.7133e-07 273.063 
-0.25 -0.97 -0.110686 0.21601 0.0097478 0.00973638 7.40047e-06 0.00974199 1.71562e-07 272.682 
-0.25 -0.95 -0.39451 0.160224 0.00974311 0.00973737 8.68931e-06 0.00974083 1.71453e-07 272.823 
-0.25 -0.93 -0.085518 0.113312 0.00975749 0.0097376 1.42719e-05 0.00974383 1.71582e-07 272.701 
-0.25 -0.91 -0.283211 0.106977 0.00976153 0.00972871 1.17191e-05 0.00974644 1.71556e-07 272.816 
-0.25 -0.89 -0.403486 0.195171 0.00974847 0.00972065 1.23014e-05 0.00973543 1.71265e-07 272.972 
-0.25 -0.87 -0.438812 0.271181 0.00974532 0.00971128 1.76524e-05 0.00973591 1.71209e-07 273.075 
-0.25 -0.85 -0.278501 0.358535 0.00976261 0.00971704 9.79674e-06 0.00974695 1.71363e-07 273.138 
-0.25 -0.83 -0.495607 0.219668 0.00975932 0.00971146 3.82716e-06 0.00974574 1.71319e-07 273.174 
-0.33 -0.81 -0.0954167 0.108663 0.00976322 0.00971262 9.66009e-06 0.00973652 1.71377e-07 272.823 
-0.31 -0.81 -0.202606 0.221068 0.00977561 0.00971954 1.16235e-05 0.00975019 1.71403e-07 273.165 
-0.29 -0.81 -0.278858 0.0936455 0.0097773 0.00972298 7.24041e-06 0.0097531 1.714e-07 273.251 
-0.27 -0.81 -0.411177 0.334602 0.00977358 0.00972032 1.05555e-05 0.009754 1.7147e-07 273.166 
-0.31 -0.79 -0.399984 0.183005 0.00975941 0.00971546 6.47409e-06 0.00973866 1.71409e-07 272.832 
-0.29 -0.79 -0.427188 0.394837 0.00976329 0.00972191 7.20189e-06 0.00973885 1.71437e-07 272.793 
-0.33 -0.77 -0.354304 0.307516 0.00976996 0.00972171 1.34648e-05 0.00974671 1.71425e-07 273.032 
-0.27 -0.79 -0.524047 0.222031 0.00976283 0.00971106 1.40858e-05 0.00973954 1.71403e-07 272.867 
-0.31 -0.77 -0.298815 0.208023 0.00976174 0.00970878 1.19962e-05 0.00973691 1.71378e-07 272.833 
-0.29 -0.77 -0.323579 0.362534 0.00975288 0.00972042 1.08739e-05 0.00973861 1.7155e-07 272.608 
-0.27 -0.77 -0.329329 0.329238 0.00975114 0.00970645 8.624e-06 0.0097331 1.71289e-07 272.868 
-0.31 -0.75 -0.168568 0.33669 0.00976044 0.00971517 9.93785e-06 0.00974749 1.71532e-07 272.884 
-0.29 -0.75 -0.465335 0.430788 0.00976129 0.00971801 1.58716e-05 0.00974693 1.71531e-07 272.869 
-0.27 -0.75 -0.526434 0.536425 0.00976117 0.00970631 1.75709e-05 0.00973537 1.71278e-07 272.949 
-0.49 -0.83 -0.0871721 0.311226 0.00975402 0.00972049 2.78925e-06 0.00973668 1.71388e-07 272.811 
-0.47 -0.83 -0.16083 0.249567 0.00975532 0.00971365 3.91337e-06 0.00973922 1.71626e-07 272.504 
-0.45 -0.83 -0.100035 0.203699 0.00975375 0.00972333 -6.80922e-07 0.00974138 1.71484e-07 272.79 
-0.49 -0.81 0.0444574 0.370922 0.00975654 0.00972253 2.20772e-07 0.00974094 1.71415e-07 272.887 
-0.43 -0.83 -0.0644677 0.0914078 0.00974909 0.00971806 1.50206e-06 0.00973624 1.71451e-07 272.698 
-0.47 -0.81 -0.0108906 0.218086 0.00975744 0.00971501 -4.96117e-07 0.00974292 1.71416e-07 272.94 
-0.45 -0.81 0.0134305 0.141599 0.00976799 0.00972627 2.31279e-06 0.00974631 1.71593e-07 272.754 
-0.49 -0.79 -0.0169713 0.426525 0.00975974 0.0097223 1.77562e-06 0.00974296 1.71427e-07 272.924 
-0.43 -0.81 -0.0617152 0.226898 0.00976775 0.00971363 -9.04134e-07 0.00974456 1.71682e-07 272.564 
-0.47 -0.79 0.0341135 0.105618 0.00975768 0.00971565 -8.697e-06 0.00974097 1.71375e-07 272.951 
-0.41 -0.81 -0.258059 0.24787 0.00976392 0.00972065 8.27717e-06 0.00974859 1.71539e-07 272.904 
-0.45 -0.79 0.0137686 0.280184 0.00975681 0.00972179 -2.58764e-06 0.00973799 1.71427e-07 272.784 
-0.49 -0.77 0.056352 0.272758 0.00975974 0.00971992 4.19066e-06 0.00973974 1.71314e-07 273.014 
-0.39 -0.81 -0.272615 0.141913 0.00975753 0.0097216 1.27868e-05 0.00974729 1.71554e-07 272.843 
-0.43 -0.79 -0.276369 0.420372 0.00976486 0.00971118 2.71607e-06 0.00973886 1.71495e-07 272.702 
-0.47 -0.77 -0.0378345 0.321708 0.00975801 0.00972496 -7.81807e-07 0.00974223 1.7138e-07 272.979 
-0.37 -0.81 -0.0753794 0.180049 0.00975714 0.00971558 7.86211e-06 0.0097365 1.7149e-07 272.643 
-0.41 -0.79 -0.385252 0.346241 0.00976766 0.00971758 5.61125e-06 0.00974766 1.71698e-07 272.625 
-0.45 -0.77 -0.330348 0.472694 0.00975735 0.00971537 -5.17068e-06 0.0097383 1.71443e-07 272.769 
-0.35 -0.81 -0.0176364 0.238037 0.00974879 0.00971408 2.71757e-06 0.00973591 1.71332e-07 272.877 
-0.39 -0.79 -0.263043 0.00120915 0.00977061 0.00972043 6.12573e-06 0.00974828 1.71755e-07 272.552 
-0.43 -0.77 -0.287603 0.501957 0.00975327 0.00971109 1.51073e-07 0.00973284 1.71442e-07 272.617 
-0.37 -0.79 -0.307303 0.159204 0.00977654 0.00971504 8.71072e-06 0.00974854 1.71579e-07 272.838 
-0.41 -0.77 -0.28955 0.165151 0.00975527 0.00970928 4.40614e-06 0.00973669 1.71442e-07 272.724 
-0.35 -0.79 -0.24329 0.127978 0.00977434 0.00971917 1.43944e-05 0.00974921 1.71585e-07 272.848 
-0.39 -0.77 -0.156402 0.0600317 0.00975252 0.00972213 9.28921e-06 0.00974575 1.7163e-07 272.679 
-0.43 -0.75 0.128113 0.230069 0.00976601 0.00971718 -5.0985e-06 0.00974493 1.7154e-07 272.799 
-0.33 -0.79 -0.256088 0.257052 0.0097605 0.00971275 1.51171e-06 0.00973283 1.71376e-07 272.722 
-0.37 -0.77 -0.147886 0.179688 0.00975587 0.00971126 2.66762e-06 0.0097369 1.71433e-07 272.746 
-0.41 -0.75 0.111607 0.397818 0.00976774 0.00969833 3.66701e-06 0.00974107 1.71592e-07 272.609 
-0.35 -0.77 -0.382268 0.233729 0.00976935 0.00972196 6.21749e-06 0.00974582 1.71363e-07 273.106 
-0.39 -0.75 -0.217767 0.0943607 0.00977242 0.00972177 5.10291e-06 0.00975025 1.71628e-07 272.808 
-0.49 -0.75 -0.0568382 0.262335 0.00975554 0.00972368 3.36225e-06 0.00974181 1.71305e-07 273.086 
-0.47 -0.75 -0.0786269 0.434391 0.00975596 0.0097333 2.03755e-06 0.00974084 1.71328e-07 273.022 
-0.45 -0.75 -0.0510084 0.586944 0.00975466 0.00970544 -5.34418e-06 0.00972859 1.71347e-07 272.648 
-0.49 -0.73 -0.0685679 0.452485 0.00977272 0.0097189 3.93675e-06 0.00974563 1.71379e-07 273.076 
-0.47 -0.73 -0.182452 0.406707 0.00977444 0.00974485 4.15862e-06 0.00975562 1.71506e-07 273.153 
-0.45 -0.73 -0.116646 0.292271 0.00977082 0.00971407 -8.93875e-06 0.00974098 1.7149e-07 272.768 
-0.49 -0.71 -0.033098 0.561597 0.00978031 0.00971671 1.5902e-06 0.00974426 1.71532e-07 272.794 
-0.43 -0.73 -0.0435644 0.32979 0.00975539 0.00970574 -1.14415e-06 0.00973616 1.71443e-07 272.709 
-0.47 -0.71 -0.0588046 0.48319 0.00977786 0.00974165 6.42474e-07 0.00975768 1.71673e-07 272.945 
-0.37 -0.75 -0.205322 0.162437 0.00976092 0.00971748 9.54703e-06 0.00974095 1.71524e-07 272.714 
-0.41 -0.73 -0.0295597 0.393501 0.00975724 0.00969659 -2.03696e-06 0.00973644 1.71576e-07 272.505 
-0.45 -0.71 0.118821 0.0999344 0.00977123 0.00972038 8.50087e-06 0.00974654 1.71533e-07 272.856 
-0.49 -0.69 0.0366196 0.555684 0.00977001 0.00971051 -5.05787e-06 0.00974026 1.71478e-07 272.767 
-0.35 -0.75 -0.0768965 0.264754 0.00975163 0.00971255 7.13117e-06 0.00973533 1.71346e-07 272.838 
-0.39 -0.73 -0.00457317 0.191154 0.00976086 0.00971085 8.42006e-06 0.00974086 1.71366e-07 272.962 
-0.43 -0.71 -0.021528 0.372583 0.0097685 0.00970736 2.59971e-06 0.00974249 1.7155e-07 272.715 
-0.47 -0.69 0.14948 0.324819 0.00977666 0.009732 4.96581e-06 0.00975268 1.71539e-07 273.019 
-0.37 -0.73 -0.265373 0.200568 0.00976956 0.00972176 8.84853e-06 0.00974815 1.71557e-07 272.863 
-0.41 -0.71 -0.0411463 0.46044 0.00976656 0.0096896 -4.05959e-07 0.00973482 1.71645e-07 272.349 
-0.45 -0.69 -0.0227323 0.301674 0.00978348 0.0097213 9.39919e-06 0.00975602 1.717e-07 272.856 
-0.35 -0.73 -0.484892 0.429845 0.00976996 0.00971512 8.82891e-06 0.00974845 1.71577e-07 272.84 
-0.39 -0.71 -0.152266 0.230468 0.00976867 0.00971367 -1.62293e-06 0.00974119 1.71533e-07 272.706 
-0.43 -0.69 -0.169781 0.501159 0.00978288 0.00971582 8.40422e-06 0.00975723 1.71864e-07 272.629 
-0.33 -0.73 -0.4272 0.112245 0.00976807 0.00970708 1.25697e-05 0.00974164 1.71598e-07 272.614 
-0.37 -0.71 -0.041423 0.339206 0.00976866 0.00971631 1.09434e-05 0.00974657 1.71561e-07 272.812 
-0.41 -0.69 -0.0883767 0.289742 0.00977665 0.00970123 -8.8685e-07 0.00974095 1.71678e-07 272.469 
-0.35 -0.71 -0.240892 0.560836 0.0097648 0.00970779 6.05556e-06 0.00974726 1.71612e-07 272.751 
-0.39 -0.69 -0.0274527 0.381976 0.00976541 0.00970204 5.22215e-06 0.00973527 1.71459e-07 272.658 
-0.37 -0.69 -0.270769 0.415725 0.00976739 0.00971271 8.69771e-06 0.00974656 1.71529e-07 272.862 
-0.35 -0.69 -0.278917 0.658546 0.00976832 0.00970579 1.20532e-05 0.00974013 1.71424e-07 272.849 
-0.35 -0.67 -0.191235 0.535544 0.00977326 0.00971763 7.76912e-06 0.00974599 1.71538e-07 272.832 
-0.33 -0.67 -0.220535 0.514665 0.00976177 0.00970155 5.31003e-06 0.00974603 1.71615e-07 272.712 
-0.33 -0.75 -0.105719 0.217408 0.00975373 0.00971411 1.09897e-05 0.00973657 1.71343e-07 272.879 
-0.31 -0.73 -0.467657 0.44746 0.0097662 0.00972183 1.28548e-05 0.00974832 1.71541e-07 272.893 
-0.29 -0.73 -0.325379 0.583872 0.00977007 0.00970567 1.17367e-05 0.0097477 1.71457e-07 273.009 
-0.33 -0.71 -0.538359 0.166152 0.00976347 0.00971089 1.56886e-05 0.00974398 1.71526e-07 272.795 
-0.27 -0.73 -0.474239 0.528835 0.00976844 0.00971609 1.76519e-05 0.00975068 1.71441e-07 273.119 
-0.31 -0.71 -0.425518 0.340038 0.00976473 0.0097217 1.06297e-05 0.00975074 1.71591e-07 272.882 
-0.29 -0.71 -0.488827 0.503854 0.00976203 0.0097025 1.5119e-05 0.0097396 1.71287e-07 273.053 
-0.33 -0.69 -0.283762 0.276399 0.0097787 0.00970817 1.65486e-06 0.0097498 1.71741e-07 272.617 
-0.27 -0.71 -0.396156 0.542288 0.0097674 0.00971161 1.05571e-05 0.00974036 1.71208e-07 273.2 
-0.31 -0.69 -0.44745 0.373705 0.00978156 0.00971867 1.14057e-05 0.009759 1.71694e-07 272.948 
-0.29 -0.69 -0.477702 0.605451 0.00978086 0.00970765 1.42586e-05 0.00975004 1.71522e-07 272.971 
-0.27 -0.69 -0.354063 0.360145 0.00978282 0.0097167 9.07228e-06 0.0097522 1.71332e-07 273.335 
-0.31 -0.67 -0.381783 0.458854 0.00975956 0.00971233 9.68471e-06 0.00974228 1.71488e-07 272.809 
-0.29 -0.67 -0.359972 0.39773 0.00976397 0.00971169 9.89931e-06 0.00974377 1.71367e-07 273.043 
-0.41 -0.83 -0.107042 0.20489 0.0097555 0.00972406 4.26511e-06 0.00974247 1.71524e-07 272.757 
-0.39 -0.83 -0.0890815 0.271964 0.00975117 0.00972118 2.87356e-06 0.00973211 1.71378e-07 272.699 
-0.37 -0.83 -0.0961043 0.220973 0.00974427 0.00971486 5.09752e-06 0.00973041 1.71244e-07 272.864 
-0.35 -0.83 -0.345298 0.0663666 0.00975114 0.00971847 1.28085e-05 0.00973171 1.71251e-07 272.889 
-0.33 -0.83 -0.199902 0.269306 0.00975037 0.00971941 1.31846e-05 0.00973354 1.71174e-07 273.064 
-0.31 -0.83 -0.142016 -0.186688 0.00974677 0.00971058 1.47338e-05 0.0097351 1.7138e-07 272.78 
-0.29 -0.83 -0.336649 0.153566 0.00975574 0.00972063 1.78297e-05 0.00974728 1.71306e-07 273.238 
-0.27 -0.83 -0.453125 0.248987 0.00975831 0.00971747 3.93574e-06 0.0097458 1.71304e-07 273.2 
-0.27 -0.67 -0.426816 0.503648 0.00975965 0.00971705 1.48347e-05 0.00974314 1.71359e-07 273.038 
-0.25 -0.67 -0.41416 0.474988 0.00977082 0.00972029 6.2602e-06 0.00975447 1.71465e-07 273.186 
-0.25 -0.81 -0.409469 0.229731 0.00975952 0.00971048 7.63984e-06 0.00974488 1.71472e-07 272.906 
-0.25 -0.79 -0.385133 0.13985 0.00976765 0.00972109 1.82713e-05 0.00974568 1.71433e-07 272.99 
-0.35 -0.55 -0.300955 0.773593 0.0097831 0.00971487 7.93813e-06 0.00974967 1.71493e-07 273.006 
-0.39 -0.53 -0.206186 0.918892 0.00978028 0.00969358 4.5696e-06 0.00974353 1.714e-07 272.984 
-0.37 -0.57 -0.316766 0.73221 0.00977987 0.0097057 7.16191e-06 0.00975015 1.71414e-07 273.146 
-0.41 -0.55 -0.210345 0.946595 0.00976366 0.00970795 2.50016e-06 0.00974115 1.71509e-07 272.743 
-0.45 -0.53 0.0384037 0.642934 0.00976704 0.00969859 -1.73586e-06 0.00973305 1.71371e-07 272.735 
-0.35 -0.57 -0.309036 0.728065 0.00978124 0.00970597 1.87136e-05 0.00974459 1.7145e-07 272.933 
-0.39 -0.55 -0.263614 0.802671 0.00976325 0.00969124 3.51655e-06 0.00974141 1.71417e-07 272.897 
-0.43 -0.53 -0.111559 0.664878 0.00977276 0.00969727 3.57903e-06 0.00973791 1.71531e-07 272.617 
-0.47 -0.51 -0.0727306 0.72141 0.00976847 0.00970176 -4.07747e-06 0.00973626 1.71542e-07 272.554 
-0.37 -0.55 -0.291386 0.733224 0.00976399 0.00968861 5.02021e-06 0.00973583 1.71238e-07 273.025 
-0.41 -0.53 -0.154122 0.825153 0.00977973 0.00970704 3.31591e-07 0.00974576 1.71532e-07 272.836 
-0.45 -0.51 -0.329172 0.69104 0.00977033 0.0096944 3.46283e-07 0.00973726 1.71514e-07 272.627 
-0.37 -0.53 -0.225862 0.779485 0.00977843 0.00969227 2.63068e-07 0.00974081 1.71453e-07 272.823 
-0.41 -0.51 -0.250446 0.817317 0.00976371 0.0097003 3.18952e-07 0.00973617 1.71437e-07 272.717 
-0.35 -0.53 -0.346252 0.830958 0.00976962 0.00970372 1.00889e-05 0.00974012 1.71476e-07 272.767 
-0.39 -0.51 -0.323647 0.910055 0.00976949 0.00969391 1.48585e-06 0.00973733 1.7154e-07 272.586 
-0.37 -0.51 -0.409879 0.899274 0.00976735 0.00968663 7.88718e-06 0.00972977 1.71273e-07 272.799 
-0.35 -0.51 -0.464434 0.860312 0.00976858 0.00969937 1.08274e-05 0.00973213 1.71377e-07 272.701 
-0.49 -0.65 0.0410558 0.445727 0.00977603 0.00971755 1.01562e-05 0.00974849 1.71452e-07 273.04 
-0.47 -0.65 -0.0903163 0.367701 0.00977497 0.00972048 2.47066e-06 0.00975255 1.71578e-07 272.953 
-0.45 -0.65 -0.03077 0.499131 0.00977022 0.00972769 6.63984e-06 0.00975297 1.71748e-07 272.693 
-0.49 -0.63 -0.00267352 0.402524 0.0097635 0.00972363 -1.79385e-07 0.009752 1.71804e-07 272.578 
-0.43 -0.65 0.0192034 0.683235 0.00976013 0.00969892 4.5799e-06 0.00973578 1.71451e-07 272.686 
-0.47 -0.63 0.00565655 0.488184 0.00976496 0.00971286 3.15338e-07 0.00974574 1.71648e-07 272.65 
-0.41 -0.65 0.00952932 0.489304 0.00976435 0.00970413 1.10986e-05 0.00973932 1.71427e-07 272.822 
-0.45 -0.63 -0.0376892 0.465985 0.00977379 0.00972622 7.97459e-06 0.00975554 1.71703e-07 272.838 
-0.49 -0.61 -0.0257093 0.514268 0.00976387 0.00971758 -9.49598e-06 0.00974704 1.71554e-07 272.837 
-0.39 -0.65 -0.173336 0.367566 0.00976403 0.00971542 6.91167e-06 0.00974596 1.71463e-07 272.951 
-0.43 -0.63 -0.147647 0.651839 0.00978006 0.00970523 9.85788e-06 0.00974097 1.71334e-07 273.016 
-0.47 -0.61 -0.15862 0.430802 0.00976505 0.00971245 2.7012e-06 0.00974362 1.71485e-07 272.85 
-0.37 -0.65 -0.297648 0.621588 0.00976602 0.00969969 -5.87083e-08 0.00973516 1.71274e-07 272.949 
-0.41 -0.63 -0.19526 0.628311 0.00977504 0.00969773 3.03725e-06 0.00973831 1.71449e-07 272.759 
-0.45 -0.61 -0.190577 0.622741 0.00976386 0.00971806 -6.65271e-06 0.00974246 1.71443e-07 272.885 
-0.49 -0.59 -0.0551588 0.468006 0.0097806 0.0097089 -4.75253e-06 0.00975404 1.71705e-07 272.793 
-0.35 -0.65 -0.286187 0.4431 0.0097727 0.00971775 9.10456e-06 0.00974718 1.71532e-07 272.876 
-0.39 -0.63 -0.178817 0.567928 0.00978404 0.00971911 8.99148e-06 0.00975129 1.71586e-07 272.904 
-0.43 -0.61 -0.0799826 0.710512 0.00977705 0.00970266 4.44385e-06 0.0097409 1.71378e-07 272.944 
-0.47 -0.59 -0.0157834 0.571513 0.00978695 0.00971895 -5.96594e-06 0.00975708 1.71654e-07 272.959 
-0.37 -0.63 -0.283521 0.556607 0.00976811 0.00969889 9.9187e-06 0.00973591 1.71348e-07 272.852 
-0.41 -0.61 -0.19463 0.597529 0.00977948 0.00971151 8.23576e-06 0.00974333 1.7143e-07 272.93 
-0.45 -0.59 -0.0533191 0.453563 0.00978593 0.00971679 -6.22693e-07 0.00975539 1.71646e-07 272.923 
-0.49 -0.57 -0.0230003 0.488594 0.00978459 0.00970629 -7.4132e-06 0.00974659 1.71544e-07 272.84 
-0.35 -0.63 -0.362989 0.530751 0.00976336 0.0097061 8.28744e-06 0.00973742 1.7135e-07 272.891 
-0.39 -0.61 -0.0990649 0.451907 0.00977837 0.00970277 4.67569e-06 0.00973885 1.71318e-07 272.983 
-0.43 -0.59 -0.0704141 0.845387 0.00977362 0.00969696 3.47808e-06 0.00974439 1.71609e-07 272.674 
-0.47 -0.57 -0.0597771 0.548645 0.00977771 0.00971736 -6.66943e-06 0.00974504 1.71535e-07 272.81 
-0.37 -0.61 -0.0998424 0.753373 0.00978033 0.00970752 1.39076e-05 0.00974478 1.71548e-07 272.782 
-0.41 -0.59 0.0025956 0.531283 0.00977874 0.00970887 1.55147e-07 0.00974139 1.71439e-07 272.862 
-0.45 -0.57 -0.101492 0.609551 0.00977533 0.00970713 1.39296e-06 0.00974257 1.71416e-07 272.93 
-0.49 -0.55 -0.0311265 0.58948 0.00976311 0.00970531 -1.0456e-05 0.00973869 1.71488e-07 272.707 
-0.35 -0.61 -0.107632 0.498581 0.00977377 0.00970305 8.06831e-06 0.00973733 1.71345e-07 272.897 
-0.39 -0.59 -0.0592329 0.482886 0.00977481 0.0096877 8.3278e-06 0.00973796 1.71409e-07 272.813 
-0.43 -0.57 0.0893455 0.614517 0.00978013 0.00969748 2.18395e-06 0.00974279 1.71415e-07 272.939 
-0.47 -0.55 -0.0842782 0.725145 0.00977146 0.00970394 1.2423e-07 0.00974405 1.71657e-07 272.589 
-0.33 -0.61 -0.313914 0.637472 0.00977233 0.00970015 1.67262e-05 0.00973976 1.71276e-07 273.075 
-0.37 -0.59 -0.14516 0.6919 0.00978165 0.00971863 1.50133e-05 0.00975359 1.71635e-07 272.89 
-0.41 -0.57 -0.0381112 0.682384 0.0097754 0.00970666 1.20245e-05 0.0097435 1.71421e-07 272.948 
-0.45 -0.55 -0.157632 0.46824 0.00976662 0.00970273 2.74225e-06 0.00973145 1.71298e-07 272.807 
-0.49 -0.53 0.0014001 0.594686 0.00976424 0.00969824 -4.1155e-06 0.00973696 1.71414e-07 272.777 
-0.35 -0.59 -0.287891 0.68779 0.00977665 0.00969903 1.26925e-05 0.00973617 1.71473e-07 272.661 
-0.39 -0.57 -0.344461 0.759138 0.00977658 0.00968689 2.22367e-06 0.00974116 1.71388e-07 272.935 
-0.43 -0.55 -0.213675 0.505202 0.00976359 0.00969311 7.07924e-06 0.00973317 1.7139e-07 272.708 
-0.47 -0.53 -0.0119602 0.607343 0.00975933 0.00970028 -1.7439e-06 0.00972873 1.71328e-07 272.683 
-0.29 -0.57 -0.587082 0.635568 0.00977576 0.00970973 2.02596e-05 0.00974675 1.71443e-07 273.006 
-0.33 -0.55 -0.478811 0.828142 0.00978498 0.00970656 1.08863e-05 0.00974774 1.7157e-07 272.831 
-0.29 -0.61 -0.307962 0.636563 0.00976772 0.0097189 7.98627e-06 0.00974838 1.7166e-07 272.705 
-0.33 -0.59 -0.354853 0.878489 0.00977554 0.00970198 1.20073e-05 0.00973878 1.71269e-07 273.058 
-0.27 -0.61 -0.377395 0.537731 0.00977926 0.00970978 1.40026e-05 0.00974877 1.71612e-07 272.793 
-0.31 -0.59 -0.554386 0.672912 0.00977909 0.00970986 1.08445e-05 0.00974455 1.71529e-07 272.806 
-0.29 -0.59 -0.371329 0.47416 0.00978239 0.00972063 1.36776e-05 0.00974906 1.71611e-07 272.803 
-0.33 -0.57 -0.381039 0.85154 0.00977924 0.00970695 7.89033e-06 0.00974328 1.71384e-07 273.001 
-0.27 -0.59 -0.450233 0.63081 0.00976761 0.0097006 1.32394e-05 0.00973567 1.71402e-07 272.76 
-0.31 -0.57 -0.37736 0.688565 0.00977926 0.00970688 6.45073e-06 0.00974364 1.71482e-07 272.855 
-0.27 -0.57 -0.671308 0.626387 0.00977213 0.00970672 2.7443e-05 0.00975215 1.71648e-07 272.83 
-0.31 -0.55 -0.294965 0.887469 0.00977105 0.00970308 1.89819e-05 0.00974356 1.71459e-07 272.89 
-0.29 -0.55 -0.458469 0.6751 0.00975874 0.0096941 2.13963e-05 0.00973001 1.71313e-07 272.744 
-0.33 -0.53 -0.234669 0.975972 0.00976661 0.00969642 1.61099e-05 0.00973401 1.71236e-07 272.978 
-0.27 -0.55 -0.390122 0.588172 0.00976573 0.00971144 1.76007e-05 0.00973691 1.71368e-07 272.848 
-0.31 -0.53 -0.378683 0.74486 0.00976614 0.00970302 2.49979e-05 0.0097428 1.71471e-07 272.849 
-0.29 -0.53 -0.335718 0.674441 0.00978199 0.00970133 1.74161e-05 0.00974894 1.71499e-07 272.977 
-0.33 -0.51 -0.348779 0.788967 0.00976543 0.00968726 2.0043e-05 0.00973092 1.71136e-07 273.05 
-0.27 -0.53 -0.515436 0.847729 0.00977242 0.00970958 2.10204e-05 0.00974097 1.71339e-07 273.009 
-0.31 -0.51 -0.316348 0.838767 0.00976688 0.00970588 1.60726e-05 0.00973312 1.71303e-07 272.846 
-0.29 -0.51 -0.439023 0.824447 0.00975499 0.00969972 2.18472e-05 0.00973571 1.71386e-07 272.787 
-0.27 -0.51 -0.532906 1.1288 0.00975802 0.00970153 2.94817e-05 0.00973504 1.7128e-07 272.937 
-0.33 -0.65 -0.316923 0.446368 0.00977429 0.0097031 1.35051e-05 0.0097422 1.7138e-07 272.977 
-0.31 -0.65 -0.253673 0.648943 0.0097716 0.00971358 1.23265e-05 0.0097465 1.7145e-07 272.987 
-0.29 -0.65 -0.505524 0.483414 0.00976351 0.00970189 8.89019e-06 0.00973448 1.71192e-07 273.061 
-0.33 -0.63 -0.298394 0.542264 0.00976283 0.00970765 6.33167e-06 0.00974447 1.71528e-07 272.805 
-0.27 -0.65 -0.479524 0.471094 0.00977226 0.00972414 7.85915e-06 0.0097485 1.71492e-07 272.976 
-0.31 -0.63 -0.466799 0.652458 0.00976255 0.00970266 1.39436e-05 0.00973723 1.71309e-07 272.951 
-0.25 -0.65 -0.504108 0.393073 0.0097616 0.00971527 9.20981e-06 0.00974166 1.71522e-07 272.737 
-0.29 -0.63 -0.441437 0.400156 0.00977196 0.0097205 1.29334e-05 0.00974611 1.71555e-07 272.808 
-0.27 -0.63 -0.464229 0.486051 0.00975804 0.00971227 1.23845e-05 0.00973516 1.71474e-07 272.631 
-0.31 -0.61 -0.332416 0.574939 0.0097743 0.00971005 1.08776e-05 0.00974888 1.71679e-07 272.689 
-0.49 -0.67 0.0282386 0.478678 0.00977311 0.00971135 -4.34033e-06 0.00974241 1.71496e-07 272.799 
-0.47 -0.67 0.0617799 0.330022 0.00976837 0.00972469 6.32532e-07 0.00974705 1.71582e-07 272.792 
-0.45 -0.67 0.0872194 0.440545 0.0097681 0.00972426 2.88789e-06 0.00974973 1.71594e-07 272.848 
-0.43 -0.67 -0.077707 0.60992 0.009775 0.00971027 5.0817e-06 0.00974675 1.71605e-07 272.746 