ITEM: TIMESTEP
903000
ITEM: NUMBER OF CELLS
5000
ITEM: BOX BOUNDS ss ss pp
-0.5 0.5
-1 1
-0.5 0.5
ITEM: CELLS xc yc f_U[*] f_V[*] f_Tau[1] f_Tau[2] f_Tau[3] f_Press[*] f_Mrho[*] f_Ttra[*] 
-0.49 -0.99 -0.0925519 0.126573 0.0097565 0.0097284 1.27623e-05 0.00974937 1.71698e-07 272.673 
-0.47 -0.99 -0.167178 -0.117023 0.0097449 0.0097143 1.2154e-06 0.00973379 1.71428e-07 272.665 
-0.45 -0.99 -0.22882 0.0849927 0.00974382 0.00972862 7.38156e-06 0.00974265 1.71471e-07 272.845 
-0.49 -0.97 -0.041078 0.181833 0.0097383 0.0097252 9.48019e-06 0.00973484 1.71337e-07 272.84 
-0.43 -0.99 -0.312926 -0.0119911 0.00973361 0.00972738 3.48833e-06 0.00973716 1.712e-07 273.123 
-0.47 -0.97 -0.11925 0.00673424 0.00974225 0.00971628 1.31412e-05 0.00973736 1.71276e-07 273.008 
-0.41 -0.99 -0.106007 -0.0745007 0.00972867 0.00972524 4.78972e-06 0.00972955 1.71298e-07 272.754 
-0.45 -0.97 -0.106765 0.0956503 0.00973844 0.00972878 2.4045e-06 0.00973792 1.7135e-07 272.906 
-0.49 -0.95 0.0411996 0.117143 0.00973304 0.00970643 -2.97901e-06 0.00972658 1.7116e-07 272.89 
-0.39 -0.99 -0.196453 0.100697 0.00973074 0.00971816 -2.81876e-06 0.0097177 1.70846e-07 273.142 
-0.43 -0.97 0.0743579 -0.0526865 0.00974826 0.0097338 6.59734e-07 0.00974065 1.71359e-07 272.968 
-0.47 -0.95 0.021937 0.175842 0.00974647 0.00972152 2.52857e-06 0.00973246 1.71246e-07 272.918 
-0.37 -0.99 -0.217658 -0.0260858 0.00973087 0.00972451 5.08784e-06 0.00972758 1.71149e-07 272.936 
-0.41 -0.97 -0.0400539 -0.167814 0.00974029 0.00972312 5.24895e-06 0.00973013 1.71096e-07 273.093 
-0.45 -0.95 0.114959 -0.21108 0.00975022 0.00974048 9.00242e-06 0.00974476 1.71537e-07 272.799 
-0.49 -0.93 -0.0598015 0.0981979 0.00976774 0.00971644 4.69279e-06 0.00974289 1.7139e-07 272.981 
-0.35 -0.99 -0.0609571 -0.147686 0.00971596 0.00969145 1.34767e-05 0.00970285 1.70775e-07 272.838 
-0.39 -0.97 0.231155 0.0285244 0.00973399 0.00972072 1.35175e-05 0.0097322 1.71258e-07 272.892 
-0.43 -0.95 0.133978 -0.0313184 0.00975123 0.00972202 8.84929e-06 0.00973629 1.71381e-07 272.81 
-0.47 -0.93 0.154665 -0.0305442 0.00976137 0.00971682 -1.00514e-07 0.00973811 1.71302e-07 272.988 
-0.33 -0.99 -0.0267201 0.0269512 0.00973132 0.00972806 4.0315e-06 0.00972136 1.71112e-07 272.821 
-0.37 -0.97 0.148431 -0.0556644 0.00973058 0.00971838 2.68504e-06 0.0097273 1.71233e-07 272.794 
-0.41 -0.95 0.0356444 -0.171021 0.0097476 0.00972851 4.78488e-06 0.00973695 1.71394e-07 272.809 
-0.45 -0.93 0.0604444 -0.00773812 0.00975802 0.00973331 4.15063e-06 0.00974116 1.71513e-07 272.737 
-0.49 -0.91 0.155662 -0.00393438 0.00977306 0.00972263 1.29425e-05 0.00974606 1.71267e-07 273.265 
-0.35 -0.97 -0.0555299 -0.0956541 0.00973356 0.009701 5.39927e-06 0.00971539 1.70978e-07 272.867 
-0.39 -0.95 -0.0454529 -0.0197271 0.00974065 0.00971902 3.94267e-06 0.00972769 1.7139e-07 272.555 
-0.43 -0.93 0.0123097 -0.0554506 0.0097511 0.00971693 6.37306e-06 0.00972623 1.71085e-07 273 
-0.47 -0.91 -0.207869 0.0210026 0.00976491 0.00971636 5.08314e-06 0.00974064 1.71412e-07 272.882 
-0.33 -0.97 -0.142936 -0.0661531 0.00973397 0.00972247 1.75931e-06 0.0097311 1.71351e-07 272.714 
-0.37 -0.95 -0.150718 0.13129 0.00974733 0.00971865 1.9965e-05 0.00973901 1.71308e-07 273.003 
-0.41 -0.93 -0.00815913 -0.107983 0.00975519 0.00973568 2.14191e-05 0.0097324 1.71358e-07 272.737 
-0.45 -0.91 -0.0498127 -0.042754 0.00976236 0.00972452 1.29406e-05 0.00974494 1.7142e-07 272.991 
-0.49 -0.89 -0.152802 0.0896127 0.00977087 0.00972126 8.90209e-06 0.0097455 1.71466e-07 272.933 
-0.35 -0.95 -0.158022 -0.0946173 0.0097514 0.00970922 -7.97916e-07 0.00973276 1.71383e-07 272.709 
-0.39 -0.93 -0.207153 0.0159577 0.00974715 0.00971708 9.39195e-06 0.00972835 1.7137e-07 272.606 
-0.43 -0.91 -0.20977 -0.115047 0.00975066 0.0097241 1.51233e-05 0.00973353 1.7109e-07 273.196 
-0.47 -0.89 0.0175965 0.0330291 0.00976089 0.00972096 1.6468e-05 0.00974316 1.71569e-07 272.703 
-0.37 -0.93 0.00270879 0.0508899 0.0097486 0.00971979 -3.21019e-06 0.00973683 1.71326e-07 272.913 
-0.41 -0.91 -0.200742 0.0824675 0.00975879 0.00971968 8.73013e-06 0.00973569 1.71383e-07 272.791 
-0.45 -0.89 -0.21872 0.023594 0.00975711 0.00971784 6.18629e-06 0.00974234 1.71353e-07 273.024 
-0.49 -0.87 -0.0339058 0.140122 0.00973473 0.00970526 3.27343e-06 0.00971779 1.71064e-07 272.796 
-0.35 -0.93 -0.359355 0.108505 0.00975247 0.00971667 3.08758e-06 0.00972698 1.71414e-07 272.497 
-0.39 -0.91 -0.116648 -0.0901131 0.00977282 0.00973348 1.2576e-05 0.00975768 1.71655e-07 272.974 
-0.43 -0.89 -0.206409 -0.00999626 0.00977268 0.00973123 1.23858e-05 0.00975238 1.71391e-07 273.245 
-0.47 -0.87 0.0808583 0.0774321 0.00974926 0.00972467 6.01141e-06 0.00973688 1.7137e-07 272.844 
-0.37 -0.91 -0.204295 0.228007 0.00975784 0.00972836 2.32924e-06 0.00974201 1.71599e-07 272.625 
-0.41 -0.89 -0.143061 0.00210502 0.00976756 0.00971755 3.39559e-06 0.00974661 1.71556e-07 272.821 
-0.45 -0.87 -0.121722 0.0697332 0.00976096 0.00971234 9.77345e-06 0.00974692 1.71437e-07 273.019 
-0.49 -0.85 0.0340117 0.133997 0.00974126 0.00970563 -2.85254e-06 0.00971538 1.71075e-07 272.712 
-0.35 -0.91 -0.0909211 0.205638 0.00975062 0.00971169 4.46608e-06 0.00972534 1.71245e-07 272.721 
-0.39 -0.89 -0.204931 0.0622228 0.0097674 0.00972399 1.13149e-05 0.00974304 1.71386e-07 272.992 
-0.43 -0.87 -0.110593 -0.0028738 0.009752 0.00973827 8.92617e-06 0.00975127 1.71562e-07 272.941 
-0.47 -0.85 -0.0419406 0.17848 0.00974936 0.00972168 3.47466e-06 0.00973854 1.71337e-07 272.943 
-0.33 -0.91 -0.144574 -0.0389974 0.00975349 0.00970567 6.99445e-06 0.00973222 1.71316e-07 272.799 
-0.37 -0.89 -0.322264 0.0841935 0.00977644 0.00974217 1.79259e-05 0.00975853 1.71431e-07 273.355 
-0.41 -0.87 -0.239024 0.0853077 0.00976033 0.009727 1.03093e-05 0.00974477 1.71572e-07 272.743 
-0.45 -0.85 -0.0732271 0.150243 0.00974489 0.00970656 7.84116e-06 0.00973014 1.7125e-07 272.846 
-0.35 -0.89 -0.309358 0.178163 0.00976718 0.00970566 8.85951e-06 0.00972734 1.71172e-07 272.893 
-0.39 -0.87 -0.124439 0.0275143 0.0097608 0.0097181 4.81122e-06 0.00973797 1.71567e-07 272.562 
-0.43 -0.85 -0.121278 0.0162924 0.00976195 0.00973865 -9.06107e-07 0.00974517 1.71541e-07 272.805 
-0.37 -0.87 -0.261695 0.148371 0.00976869 0.00973322 1.0383e-05 0.00974758 1.7151e-07 272.922 
-0.41 -0.85 -0.115498 0.0513306 0.00975973 0.00972439 7.48062e-06 0.0097437 1.71564e-07 272.726 
-0.35 -0.87 -0.180521 0.229762 0.00977535 0.00972131 7.8751e-06 0.00974329 1.71408e-07 272.964 
-0.39 -0.85 -0.286841 0.304452 0.00976308 0.00972828 9.96655e-08 0.00974648 1.71571e-07 272.793 
-0.33 -0.87 -0.520858 -0.0169813 0.00977075 0.00971588 8.58344e-06 0.00974263 1.71439e-07 272.895 
-0.37 -0.85 -0.358038 -0.0734185 0.00976168 0.00971885 6.95823e-06 0.00974289 1.71394e-07 272.975 
-0.35 -0.85 -0.350986 0.233529 0.00976173 0.00972296 1.21927e-05 0.00974034 1.71169e-07 273.262 
-0.33 -0.85 -0.462384 0.375025 0.00975412 0.00971662 1.41412e-05 0.00973053 1.71068e-07 273.148 
-0.31 -0.99 0.0292715 0.0151623 0.00972649 0.00970042 1.20017e-05 0.00971038 1.71073e-07 272.575 
-0.29 -0.99 -0.309407 0.28467 0.00972689 0.00970804 8.94746e-06 0.00971496 1.71055e-07 272.732 
-0.27 -0.99 -0.271682 -0.219236 0.0097513 0.0097237 8.55727e-06 0.0097317 1.71099e-07 273.131 
-0.31 -0.97 -0.407065 0.09156 0.00974667 0.0097099 2.40796e-06 0.00973483 1.71356e-07 272.809 
-0.29 -0.97 -0.332608 0.233146 0.00975667 0.00970883 5.06899e-06 0.00974374 1.71578e-07 272.706 
-0.33 -0.95 -0.142796 0.197326 0.009748 0.00971664 2.45019e-06 0.00973257 1.71285e-07 272.859 
-0.27 -0.97 -0.205147 -0.220333 0.00974059 0.00971745 7.57945e-06 0.00973321 1.7142e-07 272.663 
-0.31 -0.95 -0.238047 0.220418 0.00973983 0.0097134 5.37464e-06 0.00973012 1.71308e-07 272.754 
-0.29 -0.95 -0.106313 0.0351358 0.00973118 0.00968988 7.4392e-06 0.00971178 1.71142e-07 272.505 
-0.33 -0.93 -0.359625 0.22904 0.00975378 0.00970679 4.24636e-06 0.00972986 1.71283e-07 272.787 
-0.27 -0.95 -0.38599 -0.118109 0.00974356 0.00973908 4.3868e-06 0.00973458 1.71361e-07 272.794 
-0.31 -0.93 -0.178819 0.108507 0.00975395 0.0097101 9.37634e-06 0.00973238 1.71498e-07 272.514 
-0.29 -0.93 -0.282777 0.134466 0.00975748 0.00969395 6.30838e-06 0.00972564 1.71322e-07 272.606 
-0.27 -0.93 -0.128534 -0.0778497 0.00976905 0.00973554 -2.01912e-06 0.00975665 1.71611e-07 273.015 
-0.31 -0.91 -0.213321 0.361195 0.00976112 0.00970897 1.08305e-06 0.00973785 1.71453e-07 272.74 
-0.29 -0.91 -0.273286 -0.0623863 0.00976021 0.0097039 -7.89538e-06 0.00972801 1.71328e-07 272.663 
-0.33 -0.89 -0.229107 -0.0354193 0.00976299 0.00971711 -6.79167e-07 0.00973299 1.71273e-07 272.89 
-0.27 -0.91 -0.117276 -0.0566086 0.00975909 0.00971754 1.37259e-06 0.0097307 1.71472e-07 272.509 
-0.31 -0.89 -0.12976 0.315495 0.00976678 0.00970662 -2.30097e-06 0.00973881 1.71536e-07 272.634 
-0.29 -0.89 -0.139012 -0.0565548 0.00976514 0.0097107 4.15813e-07 0.00973999 1.71349e-07 272.964 
-0.27 -0.89 -0.245354 0.0654458 0.00974671 0.00970393 1.14702e-05 0.00973361 1.71387e-07 272.726 
-0.31 -0.87 -0.482901 0.135428 0.0097491 0.0097092 7.4884e-06 0.00972648 1.7132e-07 272.632 
-0.29 -0.87 -0.243327 -0.0233097 0.0097351 0.00969631 1.1114e-05 0.0097216 1.71196e-07 272.693 
-0.27 -0.87 -0.321732 0.309516 0.00973865 0.00971446 1.03248e-05 0.00972752 1.71305e-07 272.685 
-0.31 -0.85 -0.437781 -0.0956357 0.00975406 0.0097084 2.10928e-05 0.00973194 1.71419e-07 272.629 
-0.29 -0.85 -0.293649 -0.0317446 0.00974866 0.00969823 1.72457e-05 0.00974034 1.71557e-07 272.643 
-0.27 -0.85 -0.417088 0.22801 0.00974657 0.00971213 5.3103e-06 0.00973399 1.7107e-07 273.242 
-0.25 -0.99 -0.215742 0.0749741 0.00975504 0.00974062 7.0738e-06 0.00974945 1.71408e-07 273.136 
-0.25 -0.97 -0.178424 0.199398 0.00974494 0.00974138 -3.11346e-06 0.00974521 1.71621e-07 272.678 
-0.25 -0.95 -0.383697 0.103603 0.00973683 0.00973749 4.38206e-06 0.00973873 1.71428e-07 272.804 
-0.25 -0.93 -0.0650793 0.0212412 0.00976243 0.00973675 1.19744e-05 0.00974909 1.71611e-07 272.804 
-0.25 -0.91 -0.175789 0.0378277 0.00976022 0.00972728 1.69845e-05 0.00974547 1.71552e-07 272.796 
-0.25 -0.89 -0.473539 0.104954 0.00974974 0.00971829 1.31557e-05 0.00973365 1.71169e-07 273.074 
-0.25 -0.87 -0.449736 0.112494 0.00973039 0.0097077 1.02444e-05 0.00972648 1.71022e-07 273.108 
-0.25 -0.85 -0.340789 0.451122 0.00976056 0.00971196 5.96359e-06 0.00973865 1.71215e-07 273.141 
-0.25 -0.83 -0.453275 0.212821 0.00975914 0.00970035 2.2077e-06 0.00973867 1.71123e-07 273.289 
-0.33 -0.81 -0.0042573 0.165054 0.00975922 0.00970562 9.03384e-06 0.00972757 1.71262e-07 272.756 
-0.31 -0.81 -0.288871 0.332452 0.00977989 0.00971402 1.18197e-05 0.0097425 1.71222e-07 273.239 
-0.29 -0.81 -0.251302 0.122675 0.00977645 0.00970963 6.03685e-06 0.00974495 1.71288e-07 273.201 
-0.27 -0.81 -0.387983 0.17291 0.00977507 0.00972638 1.03023e-05 0.00975798 1.7157e-07 273.117 
-0.31 -0.79 -0.193778 0.119519 0.00976241 0.00971019 4.31332e-06 0.00973237 1.71392e-07 272.683 
-0.29 -0.79 -0.385367 0.527066 0.00975736 0.00970757 7.23801e-06 0.00972508 1.71263e-07 272.684 
-0.33 -0.77 -0.480073 0.28876 0.00976347 0.00971975 1.39246e-05 0.00973682 1.71296e-07 272.961 
-0.27 -0.79 -0.583074 0.238088 0.00975472 0.00971516 1.2234e-05 0.00973302 1.71385e-07 272.712 
-0.31 -0.77 -0.34269 0.181934 0.00975119 0.0096911 9.46493e-06 0.00971967 1.71175e-07 272.673 
-0.29 -0.77 -0.322539 0.540348 0.00976074 0.00971824 1.2975e-05 0.00973663 1.71485e-07 272.655 
-0.27 -0.77 -0.416835 0.220177 0.00975939 0.00970434 1.06623e-05 0.00973251 1.71412e-07 272.655 
-0.31 -0.75 -0.141214 0.429511 0.00975034 0.00970584 7.43621e-06 0.0097393 1.71489e-07 272.723 
-0.29 -0.75 -0.487047 0.577135 0.00974816 0.00971034 8.64634e-06 0.00973501 1.71414e-07 272.722 
-0.27 -0.75 -0.591058 0.602922 0.00975298 0.009708 1.32446e-05 0.00972666 1.71195e-07 272.837 
-0.49 -0.83 -0.0513751 0.128558 0.00975286 0.00971218 3.7774e-06 0.0097326 1.71467e-07 272.57 
-0.47 -0.83 0.0150315 0.153096 0.00974923 0.00971237 9.6223e-07 0.0097314 1.71445e-07 272.572 
-0.45 -0.83 -0.076556 0.203187 0.00975061 0.00972185 -4.23113e-06 0.00974259 1.71416e-07 272.931 
-0.49 -0.81 0.0564453 0.025804 0.00975124 0.00971481 -5.02513e-06 0.00973863 1.71364e-07 272.902 
-0.43 -0.83 -0.150792 0.0870909 0.00973985 0.00971917 3.70171e-06 0.00972542 1.71334e-07 272.58 
-0.47 -0.81 -0.0458142 0.26584 0.00975495 0.0097155 -2.80875e-06 0.00974739 1.71531e-07 272.883 
-0.45 -0.81 -0.0659118 0.272697 0.0097598 0.00971914 3.86686e-06 0.00974205 1.71644e-07 272.554 
-0.49 -0.79 -0.103564 0.295161 0.00975106 0.00971362 4.74545e-06 0.00973535 1.71348e-07 272.837 
-0.43 -0.81 -0.224141 0.252116 0.00976528 0.00972137 -2.52515e-06 0.00974304 1.71824e-07 272.295 
-0.47 -0.79 -0.0585621 0.066549 0.00974149 0.00971076 -4.47748e-06 0.00973246 1.71368e-07 272.724 
-0.41 -0.81 -0.448897 0.267708 0.00975601 0.00972394 9.40964e-06 0.00974482 1.71559e-07 272.766 
-0.45 -0.79 -0.0408131 0.423971 0.00974506 0.0097265 -7.18127e-06 0.00973869 1.71433e-07 272.795 
-0.49 -0.77 0.169492 0.193077 0.00973871 0.00971035 1.78434e-06 0.00972542 1.71121e-07 272.919 
-0.39 -0.81 -0.237179 0.0817039 0.00974826 0.00972166 1.12572e-05 0.00974792 1.71677e-07 272.665 
-0.43 -0.79 -0.29229 0.333217 0.00975402 0.0097162 -2.12445e-06 0.00973955 1.71495e-07 272.721 
-0.47 -0.77 -0.0954207 0.287177 0.00974979 0.00972021 -2.02231e-06 0.00973713 1.71314e-07 272.941 
-0.37 -0.81 0.13744 0.252917 0.00975242 0.00971498 5.87473e-06 0.00973728 1.71622e-07 272.456 
-0.41 -0.79 -0.347383 0.371394 0.00976176 0.00972358 5.42964e-06 0.00974899 1.71792e-07 272.512 
-0.45 -0.77 -0.358272 0.616283 0.00974855 0.00972749 -5.33248e-06 0.00973742 1.71463e-07 272.711 
-0.35 -0.81 0.0827586 0.179399 0.00974423 0.00971369 5.61425e-06 0.0097338 1.71316e-07 272.845 
-0.39 -0.79 -0.211944 -0.167131 0.00976813 0.00971882 5.55816e-06 0.00974997 1.71783e-07 272.555 
-0.43 -0.77 -0.3419 0.478686 0.00973672 0.00970868 2.29953e-08 0.0097225 1.71283e-07 272.579 
-0.37 -0.79 -0.392577 0.218261 0.00977437 0.0097142 9.10275e-06 0.00974613 1.71581e-07 272.767 
-0.41 -0.77 -0.374612 -0.0057709 0.00973822 0.00971889 9.41057e-07 0.00973329 1.71519e-07 272.508 
-0.35 -0.79 -0.323489 0.1229 0.00977322 0.00971497 1.20021e-05 0.00974175 1.7169e-07 272.472 
-0.39 -0.77 -0.122902 0.081969 0.00973818 0.00972202 1.85799e-06 0.00974154 1.71548e-07 272.692 
-0.43 -0.75 0.173846 0.321173 0.00976184 0.00971307 -4.15628e-06 0.00973537 1.71356e-07 272.824 
-0.33 -0.79 -0.286904 0.401933 0.00976576 0.00971003 -7.65601e-07 0.00972686 1.71503e-07 272.352 
-0.37 -0.77 -0.0977946 0.190161 0.0097493 0.00970962 -3.03137e-06 0.0097332 1.7147e-07 272.582 
-0.41 -0.75 0.0843405 0.282181 0.00976546 0.00971332 2.3214e-06 0.00974873 1.71654e-07 272.725 
-0.35 -0.77 -0.34737 0.460347 0.00976571 0.00971674 3.33965e-06 0.00974356 1.71362e-07 273.044 
-0.39 -0.75 -0.271594 0.150238 0.0097686 0.00972297 1.53532e-06 0.00974653 1.71496e-07 272.914 
-0.49 -0.75 -0.123066 0.175194 0.0097437 0.00972479 -2.06809e-06 0.00974076 1.71092e-07 273.397 
-0.47 -0.75 -0.0384073 0.3759 0.00974872 0.00972733 -1.06532e-05 0.00973194 1.71164e-07 273.034 
-0.45 -0.75 0.00656226 0.725668 0.00975382 0.009713 -5.71998e-06 0.00972533 1.71291e-07 272.646 
-0.49 -0.73 -0.0301584 0.336247 0.00978387 0.00972628 2.898e-06 0.00975628 1.71324e-07 273.462 
-0.47 -0.73 -0.252917 0.376433 0.00976964 0.00973861 2.31337e-06 0.00975261 1.71323e-07 273.36 
-0.45 -0.73 -0.158949 0.421327 0.00976336 0.00970985 -1.10156e-05 0.00973778 1.71519e-07 272.633 
-0.49 -0.71 -0.056823 0.419764 0.00977972 0.00972491 2.23371e-06 0.00975388 1.71574e-07 272.995 
-0.43 -0.73 0.020571 0.446282 0.009758 0.00971198 -4.11032e-06 0.00973686 1.71462e-07 272.697 
-0.47 -0.71 -0.0899562 0.567608 0.00978699 0.0097376 2.29714e-06 0.00976192 1.7172e-07 272.989 
-0.37 -0.75 -0.346173 0.148825 0.00974509 0.00970975 6.91586e-06 0.0097257 1.7136e-07 272.547 
-0.41 -0.73 0.0442117 0.31039 0.00975887 0.00970478 -6.03471e-06 0.0097398 1.71563e-07 272.619 
-0.45 -0.71 0.170106 0.0497539 0.00977628 0.00972065 3.23036e-06 0.00974851 1.71545e-07 272.891 
-0.49 -0.69 -0.0278828 0.440767 0.00977358 0.0097172 -1.23532e-05 0.00974842 1.7155e-07 272.881 
-0.35 -0.75 -0.0323023 0.352371 0.00973522 0.00970924 5.187e-06 0.00972855 1.7136e-07 272.626 
-0.39 -0.73 0.052736 0.196586 0.0097573 0.00971104 1.36564e-05 0.00973754 1.71317e-07 272.948 
-0.43 -0.71 -0.0778797 0.391396 0.00976546 0.00971359 1.79921e-06 0.00974477 1.71574e-07 272.742 
-0.47 -0.69 0.235455 0.380632 0.00977275 0.00972491 5.11127e-06 0.00975322 1.71529e-07 273.049 
-0.37 -0.73 0.016127 0.244352 0.00976521 0.00971816 1.13476e-05 0.00974681 1.71626e-07 272.716 
-0.41 -0.71 0.203626 0.431624 0.00976211 0.009688 2.21332e-07 0.00973246 1.71637e-07 272.297 
-0.45 -0.69 -0.124286 0.344949 0.00978724 0.00972286 1.08258e-05 0.00975784 1.71797e-07 272.753 
-0.35 -0.73 -0.36664 0.351083 0.00975779 0.00970897 7.0893e-06 0.0097432 1.7148e-07 272.846 
-0.39 -0.71 0.0609001 0.172847 0.00976806 0.00971224 2.54048e-06 0.00974329 1.71582e-07 272.687 
-0.43 -0.69 -0.233659 0.448897 0.00978709 0.00971876 8.04538e-06 0.00975905 1.72017e-07 272.438 
-0.33 -0.73 -0.441752 0.234875 0.0097599 0.00970261 1.02991e-05 0.00973852 1.71614e-07 272.503 
-0.37 -0.71 0.0974908 0.338898 0.00976061 0.0097149 1.79699e-05 0.00974729 1.71691e-07 272.626 
-0.41 -0.69 -0.207703 0.140586 0.00977576 0.0097002 8.15969e-07 0.00973904 1.71679e-07 272.415 
-0.35 -0.71 -0.150271 0.662377 0.00975927 0.00970847 1.74332e-06 0.00975527 1.71788e-07 272.694 
-0.39 -0.69 -0.10343 0.256957 0.00975985 0.00969604 1.20347e-05 0.00972997 1.71484e-07 272.47 
-0.37 -0.69 -0.162022 0.477636 0.00977036 0.00971145 9.24562e-06 0.00974642 1.71522e-07 272.87 
-0.35 -0.69 -0.166779 0.757038 0.00977178 0.0097162 1.65472e-05 0.00974712 1.71533e-07 272.872 
-0.35 -0.67 -0.230278 0.750706 0.00977726 0.00973165 1.04031e-05 0.00975224 1.71516e-07 273.042 
-0.33 -0.67 -0.295603 0.792218 0.00975791 0.00970069 3.04695e-06 0.00974538 1.71609e-07 272.702 
-0.33 -0.75 0.0986558 0.245306 0.00973744 0.00970545 8.41173e-06 0.00973018 1.71381e-07 272.639 
-0.31 -0.73 -0.402303 0.654099 0.00975695 0.00971483 4.35345e-06 0.00973922 1.71454e-07 272.777 
-0.29 -0.73 -0.39105 0.760958 0.00976264 0.00969934 4.5476e-06 0.00973636 1.7133e-07 272.894 
-0.33 -0.71 -0.403435 0.216251 0.00975691 0.00970478 9.87913e-06 0.0097421 1.71659e-07 272.532 
-0.27 -0.73 -0.495647 0.569923 0.00976441 0.00971572 8.72421e-06 0.00974339 1.71368e-07 273.03 
-0.31 -0.71 -0.392045 0.65983 0.00975733 0.00971919 9.0324e-06 0.00974487 1.71646e-07 272.629 
-0.29 -0.71 -0.339111 0.677774 0.00975076 0.00969341 8.69771e-06 0.0097285 1.71188e-07 272.9 
-0.33 -0.69 -0.254483 0.504556 0.00978192 0.00970357 -4.86182e-06 0.00975066 1.7179e-07 272.562 
-0.27 -0.71 -0.277868 0.580629 0.00975385 0.00970834 5.10729e-06 0.00973176 1.71222e-07 272.936 
-0.31 -0.69 -0.495948 0.578954 0.00978198 0.00971593 1.14311e-05 0.00975832 1.71871e-07 272.649 
-0.29 -0.69 -0.447269 0.591076 0.00977793 0.00970059 1.35177e-05 0.00974252 1.71576e-07 272.674 
-0.27 -0.69 -0.296212 0.651926 0.00978035 0.00971281 3.26617e-06 0.00974771 1.71336e-07 273.203 
-0.31 -0.67 -0.305017 0.713467 0.00975809 0.00970133 3.37299e-06 0.0097338 1.71523e-07 272.515 
-0.29 -0.67 -0.340035 0.451752 0.00976986 0.0097073 9.7844e-06 0.00974427 1.71468e-07 272.896 
-0.41 -0.83 -0.10393 0.195302 0.00975291 0.0097274 -9.2189e-07 0.00974104 1.71547e-07 272.68 
-0.39 -0.83 -0.277916 0.366874 0.00975091 0.00972884 6.80436e-06 0.00973765 1.71424e-07 272.781 
-0.37 -0.83 -0.322463 0.253368 0.00974327 0.00971296 9.47669e-06 0.00973364 1.71403e-07 272.701 
-0.35 -0.83 -0.433901 0.134134 0.00975191 0.00971733 1.55919e-05 0.00973325 1.71371e-07 272.741 
-0.33 -0.83 -0.173717 0.242641 0.00975299 0.00971496 1.76197e-05 0.00973201 1.71171e-07 273.025 
-0.31 -0.83 -0.165856 -0.205429 0.00974782 0.0096992 1.35868e-05 0.00973389 1.71363e-07 272.773 
-0.29 -0.83 -0.532129 0.154405 0.00976429 0.00971575 1.42309e-05 0.0097494 1.71362e-07 273.208 
-0.27 -0.83 -0.536455 0.27401 0.00976699 0.00972426 5.92378e-06 0.00975259 1.71336e-07 273.339 
-0.27 -0.67 -0.457887 0.596891 0.00976009 0.00971992 1.57294e-05 0.00974897 1.71533e-07 272.924 
-0.25 -0.67 -0.318373 0.706148 0.00976709 0.00971973 1.75134e-08 0.0097566 1.71481e-07 273.219 
-0.25 -0.81 -0.532356 0.251235 0.00976635 0.00971092 4.6037e-06 0.0097458 1.71466e-07 272.942 
-0.25 -0.79 -0.483692 0.208597 0.00976503 0.00972752 1.70704e-05 0.00974741 1.7142e-07 273.06 
-0.35 -0.55 -0.204204 0.74961 0.00978848 0.00970693 7.88297e-06 0.00975054 1.71592e-07 272.874 
-0.39 -0.53 -0.0480538 1.06549 0.00978194 0.00969125 2.10478e-06 0.00974979 1.71596e-07 272.847 
-0.37 -0.57 -0.314833 0.674204 0.00978681 0.00969805 4.12985e-06 0.00975281 1.71643e-07 272.857 
-0.41 -0.55 -0.0104053 0.900474 0.00976174 0.00970615 -2.88665e-06 0.00974093 1.71492e-07 272.764 
-0.45 -0.53 0.0753825 0.600705 0.00977218 0.00969687 -7.34694e-06 0.00973065 1.71446e-07 272.549 
-0.35 -0.57 -0.226927 0.622877 0.00978169 0.00970017 2.17874e-05 0.00974538 1.71524e-07 272.838 
-0.39 -0.55 -0.124634 0.966266 0.00976443 0.00969042 5.20269e-06 0.00974529 1.71406e-07 273.024 
-0.43 -0.53 -0.15268 0.674374 0.00977767 0.0096973 3.77913e-06 0.0097357 1.71594e-07 272.455 
-0.47 -0.51 -0.204204 0.634964 0.00976705 0.00969066 -2.90408e-06 0.00972794 1.71488e-07 272.406 
-0.37 -0.55 -0.188346 0.692322 0.0097596 0.00967855 4.06268e-06 0.0097322 1.7111e-07 273.128 
-0.41 -0.53 -0.190055 0.839185 0.00978279 0.00970837 -2.05797e-06 0.00975007 1.71634e-07 272.795 
-0.45 -0.51 -0.347427 0.73296 0.00976496 0.00969432 3.65224e-06 0.00973331 1.71506e-07 272.528 
-0.37 -0.53 -0.139632 0.830088 0.00978489 0.0096869 -9.76641e-07 0.00973884 1.71454e-07 272.766 
-0.41 -0.51 -0.310734 0.831266 0.00975418 0.00970342 8.17955e-07 0.00972823 1.71359e-07 272.619 
-0.35 -0.53 -0.373902 0.858109 0.00976978 0.00969398 8.74955e-06 0.00973139 1.71409e-07 272.628 
-0.39 -0.51 -0.432636 0.858351 0.00975876 0.0096872 1.00072e-06 0.00972626 1.71374e-07 272.54 
-0.37 -0.51 -0.311338 1.00667 0.00975613 0.00967841 8.46771e-06 0.00972056 1.71236e-07 272.6 
-0.35 -0.51 -0.40651 0.84011 0.00975521 0.00969269 1.15297e-05 0.00972119 1.71257e-07 272.585 
-0.49 -0.65 0.139137 0.310652 0.00976819 0.00971784 9.32675e-06 0.00974907 1.71542e-07 272.912 
-0.47 -0.65 -0.159624 0.462435 0.00976523 0.00972012 5.5276e-06 0.00975015 1.71634e-07 272.795 
-0.45 -0.65 -0.130553 0.588258 0.00976093 0.00972403 4.73271e-06 0.00975038 1.71822e-07 272.503 
-0.49 -0.63 -0.122966 0.335896 0.00975083 0.00972024 3.35511e-06 0.00974658 1.71797e-07 272.437 
-0.43 -0.65 0.113105 0.748576 0.00974501 0.00969654 2.96141e-06 0.00972772 1.71359e-07 272.606 
-0.47 -0.63 -0.106607 0.608531 0.00975598 0.00971692 -1.05884e-06 0.00974435 1.71766e-07 272.424 
-0.41 -0.65 -0.0127729 0.350785 0.00976241 0.00970588 1.154e-05 0.0097402 1.71506e-07 272.722 
-0.45 -0.63 -0.191562 0.553347 0.00976608 0.00971982 9.78373e-06 0.00974649 1.71685e-07 272.613 
-0.49 -0.61 -0.0347567 0.513828 0.0097679 0.0097189 -9.92664e-06 0.00975037 1.71764e-07 272.596 
-0.39 -0.65 -0.114236 0.243861 0.00976068 0.00971514 6.43377e-06 0.00974211 1.71365e-07 272.999 
-0.43 -0.63 -0.348281 0.64546 0.00977611 0.00971038 6.54102e-06 0.00974142 1.71323e-07 273.047 
-0.47 -0.61 -0.29225 0.635216 0.00976564 0.00971499 3.36299e-06 0.00974693 1.71683e-07 272.628 
-0.37 -0.65 -0.553967 0.556072 0.00975738 0.00969246 -2.94085e-07 0.0097286 1.71218e-07 272.855 
-0.41 -0.63 -0.343553 0.436528 0.00976374 0.0096938 3.03279e-06 0.00973143 1.71316e-07 272.778 
-0.45 -0.61 -0.344347 0.70292 0.00976397 0.00971653 -7.79399e-06 0.00974471 1.71478e-07 272.892 
-0.49 -0.59 -0.0821712 0.559089 0.00977242 0.0097012 -8.33386e-06 0.00974407 1.71549e-07 272.761 
-0.35 -0.65 -0.569248 0.507426 0.00976883 0.00973165 6.83551e-06 0.0097519 1.71687e-07 272.761 
-0.39 -0.63 -0.448623 0.535428 0.00977522 0.00971786 9.65446e-06 0.00974112 1.71495e-07 272.764 
-0.43 -0.61 -0.141636 0.748133 0.00976995 0.00970143 6.75371e-06 0.00973678 1.71206e-07 273.102 
-0.47 -0.59 -0.0082459 0.764827 0.00977968 0.00972025 -6.2018e-06 0.00975299 1.71757e-07 272.68 
-0.37 -0.63 -0.438912 0.621456 0.0097613 0.00969495 7.12999e-06 0.00973074 1.71431e-07 272.576 
-0.41 -0.61 -0.358863 0.432357 0.00977594 0.00971563 5.46002e-06 0.00974251 1.71292e-07 273.126 
-0.45 -0.59 0.0891323 0.37787 0.0097812 0.0097118 -1.84776e-06 0.00975498 1.71684e-07 272.852 
-0.49 -0.57 -0.0234997 0.520065 0.00977716 0.00969792 -1.30099e-05 0.00973544 1.71359e-07 272.821 
-0.35 -0.63 -0.46558 0.478018 0.00975771 0.00971897 7.20217e-06 0.00973704 1.71411e-07 272.784 
-0.39 -0.61 -0.321938 0.471817 0.00977899 0.00969881 9.09833e-07 0.00973725 1.71242e-07 273.059 
-0.43 -0.59 0.0602114 0.846007 0.00977767 0.00970218 2.91808e-06 0.009748 1.71722e-07 272.596 
-0.47 -0.57 -0.00739214 0.643429 0.00977647 0.00972121 -8.0732e-06 0.00974572 1.71659e-07 272.632 
-0.37 -0.61 -0.317159 0.58821 0.0097834 0.00970701 1.13801e-05 0.00974603 1.71458e-07 272.96 
-0.41 -0.59 0.120704 0.534333 0.00978117 0.00971101 -3.83521e-06 0.0097454 1.7148e-07 272.908 
-0.45 -0.57 0.0879618 0.504614 0.00977601 0.00969867 9.10806e-07 0.00973986 1.71385e-07 272.904 
-0.49 -0.55 0.0321676 0.555584 0.00976319 0.00970078 -1.19651e-05 0.00973597 1.71452e-07 272.689 
-0.35 -0.61 -0.213124 0.50756 0.00977821 0.00970494 7.15322e-06 0.00973826 1.71362e-07 272.895 
-0.39 -0.59 -0.0818053 0.674602 0.00977484 0.00968153 6.34279e-06 0.00973339 1.71264e-07 272.916 
-0.43 -0.57 0.113031 0.750528 0.00977915 0.00970269 -5.5755e-06 0.00974774 1.71401e-07 273.099 
-0.47 -0.55 0.0117572 0.74718 0.00977484 0.00970288 -7.61859e-06 0.00974581 1.71733e-07 272.518 
-0.33 -0.61 -0.550118 0.648839 0.00978021 0.00970254 2.04277e-05 0.00974817 1.71428e-07 273.069 
-0.37 -0.59 -0.127326 0.466629 0.00977527 0.0097179 1.44698e-05 0.00974499 1.7149e-07 272.88 
-0.41 -0.57 0.000821963 0.773839 0.00978072 0.00970705 1.38863e-05 0.00974601 1.71558e-07 272.802 
-0.45 -0.55 -0.141847 0.407863 0.00977367 0.00970012 -2.16707e-06 0.00973226 1.71439e-07 272.606 
-0.49 -0.53 0.0256155 0.578216 0.00977686 0.00970006 -5.63742e-06 0.00974129 1.71591e-07 272.617 
-0.35 -0.59 -0.393367 0.712122 0.00977117 0.00969549 1.28652e-05 0.00973183 1.71486e-07 272.519 
-0.39 -0.57 -0.264392 0.849886 0.00978149 0.0096882 -1.37069e-07 0.00974511 1.71438e-07 272.966 
-0.43 -0.55 -0.0416213 0.679211 0.0097685 0.00969939 5.27958e-06 0.00974302 1.71476e-07 272.847 
-0.47 -0.53 0.0460314 0.604614 0.0097693 0.00969487 -5.81076e-06 0.00973373 1.71526e-07 272.508 
-0.29 -0.57 -0.547883 0.559811 0.00976886 0.00969572 2.18768e-05 0.0097363 1.71315e-07 272.916 
-0.33 -0.55 -0.552195 0.982086 0.00979827 0.00971576 8.14483e-06 0.00975055 1.71533e-07 272.968 
-0.29 -0.61 -0.35371 0.712987 0.00976147 0.00970569 1.29925e-06 0.00973651 1.71489e-07 272.645 
-0.33 -0.59 -0.344717 0.915043 0.00977082 0.00970163 1.34131e-05 0.00973773 1.71305e-07 272.972 
-0.27 -0.61 -0.423242 0.477535 0.00976564 0.00970362 1.60491e-05 0.00973633 1.71394e-07 272.791 
-0.31 -0.59 -0.63931 0.826362 0.00977487 0.00971838 1.25286e-05 0.00974619 1.71502e-07 272.896 
-0.29 -0.59 -0.369377 0.354756 0.00978674 0.00970672 1.25456e-05 0.00975019 1.71534e-07 272.957 
-0.33 -0.57 -0.244391 1.01952 0.00977598 0.0097065 8.82143e-06 0.00973811 1.7138e-07 272.863 
-0.27 -0.59 -0.282798 0.71479 0.00977234 0.0096881 1.63851e-05 0.00973231 1.71243e-07 272.919 
-0.31 -0.57 -0.212582 0.775222 0.00977909 0.00971507 2.68174e-06 0.0097474 1.71588e-07 272.793 
-0.27 -0.57 -0.732445 0.715366 0.00976458 0.00969496 2.8946e-05 0.00974544 1.71577e-07 272.754 
-0.31 -0.55 -0.27311 0.999667 0.00977614 0.00969962 2.48488e-05 0.00974269 1.71445e-07 272.888 
-0.29 -0.55 -0.420167 0.703799 0.00976112 0.00968217 2.54327e-05 0.00972673 1.71176e-07 272.87 
-0.33 -0.53 -0.193151 1.08651 0.00976437 0.00969653 1.66991e-05 0.00972966 1.71232e-07 272.861 
-0.27 -0.55 -0.395013 0.681426 0.00976211 0.0097025 1.89563e-05 0.00972924 1.71323e-07 272.705 
-0.31 -0.53 -0.320417 0.776342 0.00976546 0.00970129 2.94507e-05 0.00974057 1.71539e-07 272.68 
-0.29 -0.53 -0.316503 0.767853 0.00978439 0.00968937 2.61332e-05 0.00974648 1.71473e-07 272.949 
-0.33 -0.51 -0.339798 0.872247 0.00974873 0.00968131 2.25277e-05 0.00971848 1.71029e-07 272.871 
-0.27 -0.53 -0.536984 0.870264 0.00977655 0.00970275 2.69186e-05 0.00974003 1.71314e-07 273.022 
-0.31 -0.51 -0.130774 0.819385 0.00975015 0.0096991 1.98617e-05 0.00972313 1.71152e-07 272.806 
-0.29 -0.51 -0.176878 0.910004 0.00974306 0.00968749 2.19579e-05 0.00972771 1.71132e-07 272.967 
-0.27 -0.51 -0.266728 1.19284 0.0097586 0.00970318 2.80164e-05 0.00973762 1.71186e-07 273.159 
-0.33 -0.65 -0.382972 0.552399 0.00977706 0.00970389 1.43077e-05 0.00975135 1.71516e-07 273.018 
-0.31 -0.65 -0.250746 0.80219 0.00977288 0.00970368 9.96838e-06 0.00974661 1.71523e-07 272.873 
-0.29 -0.65 -0.462016 0.653128 0.00975791 0.00969113 1.0693e-05 0.00973008 1.71267e-07 272.819 
-0.33 -0.63 -0.357026 0.591047 0.00975034 0.00970883 9.83873e-06 0.00974029 1.71563e-07 272.633 
-0.27 -0.65 -0.440335 0.512858 0.00977381 0.00972955 6.64729e-06 0.00975372 1.7168e-07 272.823 
-0.31 -0.63 -0.682633 0.779177 0.00974483 0.00969367 1.10988e-05 0.00972876 1.71187e-07 272.909 
-0.25 -0.65 -0.544136 0.519049 0.00976374 0.00971477 7.39214e-06 0.00974671 1.71678e-07 272.63 
-0.29 -0.63 -0.688343 0.512076 0.00976508 0.00970996 6.25105e-06 0.00974135 1.71575e-07 272.643 
-0.27 -0.63 -0.59053 0.567844 0.00975331 0.00972102 7.04153e-06 0.0097427 1.71611e-07 272.624 
-0.31 -0.61 -0.469409 0.808569 0.00977976 0.00971214 1.23148e-05 0.00975134 1.71625e-07 272.844 
-0.49 -0.67 0.0209081 0.417838 0.00976767 0.00971221 5.82938e-08 0.00974501 1.71385e-07 273.049 
-0.47 -0.67 0.0416724 0.198722 0.00976471 0.00972208 -3.52209e-06 0.00974018 1.71564e-07 272.628 
-0.45 -0.67 0.0992359 0.803193 0.0097593 0.00971698 2.00499e-06 0.00973918 1.71605e-07 272.535 
-0.43 -0.67 -0.192207 0.448963 0.00977267 0.00971966 8.99648e-06 0.00974472 1.71677e-07 272.576 