ITEM: TIMESTEP
1007000
ITEM: NUMBER OF CELLS
5000
ITEM: BOX BOUNDS ss ss pp
-0.5 0.5
-1 1
-0.5 0.5
ITEM: CELLS xc yc f_U[*] f_V[*] f_Tau[1] f_Tau[2] f_Tau[3] f_Press[*] f_Mrho[*] f_Ttra[*] 
-0.49 -0.99 -0.0551351 0.123291 0.0097654 0.00973647 1.01553e-05 0.00975123 1.71597e-07 272.885 
-0.47 -0.99 -0.18928 -0.0176261 0.00975123 0.00971993 8.22538e-06 0.00973997 1.71491e-07 272.739 
-0.45 -0.99 -0.231958 0.0189204 0.00975217 0.00973356 5.56359e-06 0.00974691 1.71478e-07 272.953 
-0.49 -0.97 -0.0717215 0.177923 0.00974659 0.00972578 1.14318e-05 0.00973561 1.71371e-07 272.808 
-0.43 -0.99 -0.283984 -0.0411429 0.00974326 0.0097268 5.87904e-06 0.00974043 1.71384e-07 272.922 
-0.47 -0.97 -0.0992257 0.0885128 0.00974613 0.00972259 1.57602e-05 0.00973901 1.71423e-07 272.819 
-0.41 -0.99 -0.162986 -0.081568 0.00973874 0.00972916 1.08105e-06 0.0097369 1.71326e-07 272.915 
-0.45 -0.97 -0.0855701 -0.00961145 0.00974442 0.00973572 7.87628e-06 0.00974502 1.71429e-07 272.979 
-0.49 -0.95 0.0836456 0.140378 0.00973202 0.00971138 3.34878e-06 0.00972848 1.71191e-07 272.894 
-0.39 -0.99 -0.184278 0.0987382 0.00974136 0.00973077 -4.20839e-07 0.00973653 1.71131e-07 273.215 
-0.43 -0.97 0.00804969 0.0853224 0.00974974 0.00973086 3.68012e-06 0.00974603 1.71425e-07 273.013 
-0.47 -0.95 0.127117 0.097717 0.0097498 0.00972812 1.17035e-06 0.00973815 1.7136e-07 272.896 
-0.37 -0.99 -0.229744 -0.0496008 0.00973899 0.00972685 1.15731e-05 0.00973471 1.71257e-07 272.963 
-0.41 -0.97 -0.173637 -0.171995 0.00974353 0.00973 5.45812e-06 0.00973863 1.71363e-07 272.904 
-0.45 -0.95 0.20682 -0.129917 0.0097595 0.00974133 8.5079e-06 0.00975728 1.71631e-07 273.001 
-0.49 -0.93 0.0323531 0.0617653 0.00976731 0.0097217 4.03879e-07 0.00974618 1.71444e-07 272.988 
-0.35 -0.99 -0.0701761 -0.124529 0.00973013 0.00970516 8.80442e-06 0.00971517 1.7095e-07 272.905 
-0.39 -0.97 -0.0725332 0.038085 0.00973814 0.00972506 8.61045e-06 0.00973703 1.71384e-07 272.827 
-0.43 -0.95 0.143886 0.0758828 0.00975757 0.00972737 9.61475e-06 0.00974859 1.71551e-07 272.885 
-0.47 -0.93 0.0285303 0.038484 0.00975982 0.00972388 1.12632e-06 0.00974372 1.71502e-07 272.826 
-0.33 -0.99 -0.0290211 0.0582544 0.009735 0.00972781 5.34945e-06 0.0097299 1.71245e-07 272.848 
-0.37 -0.97 0.00737127 -0.0859686 0.00973645 0.00972669 6.65334e-06 0.00973825 1.71333e-07 272.942 
-0.41 -0.95 0.0543938 0.0948563 0.00975633 0.00973199 5.00855e-06 0.00974693 1.71551e-07 272.838 
-0.45 -0.93 -0.100052 0.0407315 0.00975721 0.00973301 5.35681e-06 0.00974658 1.71518e-07 272.88 
-0.49 -0.91 -0.0346985 0.190037 0.00977364 0.00972661 1.12109e-05 0.00975237 1.7147e-07 273.119 
-0.35 -0.97 -0.0554426 -0.0957656 0.00973852 0.00971217 9.17639e-06 0.00973031 1.71166e-07 272.985 
-0.39 -0.95 -0.150792 -0.0833391 0.00975265 0.00972403 7.26247e-06 0.00973946 1.71521e-07 272.677 
-0.43 -0.93 -0.133649 0.072227 0.00975831 0.00973069 4.34171e-06 0.00974132 1.71439e-07 272.859 
-0.47 -0.91 -0.250085 0.0345216 0.00976462 0.00972556 6.15214e-06 0.00974328 1.71494e-07 272.826 
-0.33 -0.97 -0.149997 -0.00295989 0.00974253 0.00972449 3.57733e-06 0.00973984 1.7142e-07 272.848 
-0.37 -0.95 -0.163514 -0.0967719 0.00975615 0.00972135 1.26077e-05 0.00974354 1.71373e-07 273.026 
-0.41 -0.93 -0.114746 0.114719 0.00975855 0.00972884 1.30806e-05 0.00973751 1.71329e-07 272.927 
-0.45 -0.91 -0.0743975 0.030457 0.00976342 0.00972591 4.82612e-06 0.00974905 1.71537e-07 272.92 
-0.49 -0.89 -0.0231952 0.152415 0.00976419 0.00972669 8.15492e-06 0.00974698 1.7141e-07 273.063 
-0.35 -0.95 -0.117477 -0.0581359 0.00975761 0.00972214 5.06283e-06 0.00974374 1.71435e-07 272.934 
-0.39 -0.93 0.000852825 -0.0917071 0.00975626 0.0097259 8.1083e-06 0.00974316 1.71616e-07 272.629 
-0.43 -0.91 -0.177742 0.0874835 0.00975826 0.00973402 1.04176e-05 0.00974235 1.71329e-07 273.064 
-0.47 -0.89 0.113514 0.118822 0.00976544 0.00973008 1.06345e-05 0.00974752 1.71581e-07 272.807 
-0.37 -0.93 -0.053836 0.0106994 0.0097573 0.00972165 2.44964e-06 0.00974507 1.71421e-07 272.992 
-0.41 -0.91 -0.0870105 -0.0131512 0.0097666 0.00972389 5.55559e-06 0.00974476 1.71448e-07 272.942 
-0.45 -0.89 -0.113587 0.186227 0.00976041 0.00972153 4.00527e-06 0.00974378 1.71453e-07 272.905 
-0.49 -0.87 -0.0268132 0.163404 0.00974708 0.00971513 5.05814e-07 0.00973222 1.71313e-07 272.804 
-0.35 -0.93 -0.383458 0.0182899 0.00975679 0.00972382 8.3359e-06 0.00974006 1.71486e-07 272.749 
-0.39 -0.91 -0.12025 -0.0453801 0.00977055 0.00973273 1.27783e-05 0.00975451 1.71735e-07 272.757 
-0.43 -0.89 -0.144977 -0.0190515 0.00976873 0.0097397 4.62197e-06 0.00975375 1.71516e-07 273.085 
-0.47 -0.87 0.0886805 0.169631 0.00975446 0.00972947 6.84497e-06 0.00973764 1.71337e-07 272.919 
-0.37 -0.91 -0.248699 0.193144 0.0097566 0.00972059 1.17625e-05 0.00973892 1.71588e-07 272.556 
-0.41 -0.89 -0.118619 -0.0073205 0.00976148 0.00971922 3.2369e-06 0.00974375 1.71519e-07 272.8 
-0.45 -0.87 -0.0905213 0.183932 0.00976268 0.00972237 7.99856e-06 0.00974929 1.71503e-07 272.98 
-0.49 -0.85 -0.0429416 0.178377 0.00975358 0.00971447 3.19507e-07 0.00973257 1.71217e-07 272.967 
-0.35 -0.91 -0.111362 0.141179 0.00974963 0.00972342 5.48434e-06 0.00973745 1.71447e-07 272.737 
-0.39 -0.89 -0.0977196 0.154693 0.00975825 0.00971934 1.3378e-05 0.009747 1.71553e-07 272.837 
-0.43 -0.87 -0.0823501 0.114366 0.00974938 0.00974037 9.88523e-06 0.00974942 1.71559e-07 272.894 
-0.47 -0.85 -0.208065 0.257038 0.00975578 0.00972445 7.78602e-07 0.00974427 1.71377e-07 273.041 
-0.33 -0.91 -0.176124 -0.0751648 0.0097501 0.0097146 1.26625e-05 0.00973593 1.71391e-07 272.784 
-0.37 -0.89 -0.217141 0.0957104 0.00976497 0.00973323 1.90481e-05 0.0097558 1.7165e-07 272.929 
-0.41 -0.87 -0.238375 -0.0135424 0.00975419 0.00972084 7.31964e-06 0.00973857 1.71505e-07 272.677 
-0.45 -0.85 -0.127811 0.174484 0.00975592 0.00971873 8.33278e-06 0.00974284 1.71393e-07 272.976 
-0.35 -0.89 -0.294151 0.169042 0.00976683 0.00972086 1.06751e-05 0.00974175 1.71454e-07 272.847 
-0.39 -0.87 -0.311728 0.147059 0.00976049 0.00971223 6.28138e-06 0.00974012 1.71493e-07 272.74 
-0.43 -0.85 -0.186777 0.133164 0.00976714 0.00974202 5.98983e-06 0.00975056 1.71686e-07 272.726 
-0.37 -0.87 -0.336858 0.218223 0.00977208 0.00973227 8.93069e-06 0.00975327 1.71616e-07 272.911 
-0.41 -0.85 -0.140963 0.12702 0.00976576 0.0097216 8.89652e-06 0.0097473 1.7166e-07 272.675 
-0.35 -0.87 -0.295981 0.152815 0.00977251 0.00972438 1.17014e-05 0.00974606 1.71512e-07 272.876 
-0.39 -0.85 -0.295393 0.334984 0.00976577 0.00971761 -4.47259e-07 0.00974752 1.71571e-07 272.823 
-0.33 -0.87 -0.384972 0.0352528 0.00977003 0.0097228 1.36228e-05 0.00974879 1.71521e-07 272.937 
-0.37 -0.85 -0.355146 0.0592634 0.00976428 0.00972292 6.64419e-06 0.00974434 1.71473e-07 272.89 
-0.35 -0.85 -0.277386 0.178317 0.00976407 0.00972072 1.35977e-05 0.00974303 1.71346e-07 273.055 
-0.33 -0.85 -0.380517 0.250303 0.00976543 0.00972304 1.34294e-05 0.00974161 1.7141e-07 272.913 
-0.31 -0.99 0.0543018 -0.0632648 0.00973103 0.00971131 1.28464e-05 0.00971924 1.71174e-07 272.662 
-0.29 -0.99 -0.0536608 0.0988438 0.00973394 0.00971901 1.17286e-05 0.00972982 1.71232e-07 272.866 
-0.27 -0.99 -0.126911 0.00427642 0.00974492 0.00972802 5.53778e-06 0.00973249 1.71144e-07 273.081 
-0.31 -0.97 -0.391274 -0.0498581 0.00974716 0.00971581 5.17633e-06 0.00973251 1.71347e-07 272.758 
-0.29 -0.97 -0.390388 0.231501 0.00975665 0.00971837 8.87362e-06 0.00974514 1.71543e-07 272.8 
-0.33 -0.95 -0.0871244 0.137166 0.00975192 0.00971902 8.43176e-06 0.00973809 1.7135e-07 272.91 
-0.27 -0.97 -0.317333 -0.0564736 0.00974812 0.00972443 1.15289e-05 0.00974099 1.71441e-07 272.847 
-0.31 -0.95 -0.232735 0.230262 0.00975103 0.00971901 7.04139e-06 0.00973331 1.71351e-07 272.775 
-0.29 -0.95 -0.216662 0.0493115 0.00974447 0.00970651 6.77335e-06 0.00972548 1.71322e-07 272.601 
-0.33 -0.93 -0.356669 0.13095 0.00976005 0.0097156 2.84234e-06 0.00973698 1.7134e-07 272.896 
-0.27 -0.95 -0.31766 -0.0238991 0.00975056 0.00973116 7.57555e-06 0.00974327 1.71406e-07 272.966 
-0.31 -0.93 -0.0974494 0.0908509 0.00976053 0.00971716 1.13982e-05 0.0097414 1.71632e-07 272.554 
-0.29 -0.93 -0.183393 0.192802 0.00976165 0.00971045 9.91787e-06 0.00973914 1.7152e-07 272.669 
-0.27 -0.93 -0.157578 0.0636774 0.0097583 0.00972458 9.1678e-06 0.00974417 1.7157e-07 272.731 
-0.31 -0.91 -0.221557 0.163907 0.00975117 0.0097155 7.705e-06 0.00973797 1.71479e-07 272.701 
-0.29 -0.91 -0.207342 0.0330191 0.00975056 0.00971122 2.07014e-06 0.0097314 1.71402e-07 272.639 
-0.33 -0.89 -0.321738 -0.0549004 0.00976079 0.00972248 9.32e-06 0.00974331 1.71438e-07 272.917 
-0.27 -0.91 -0.0606547 0.105616 0.00975609 0.00972197 6.87562e-06 0.00973556 1.71485e-07 272.625 
-0.31 -0.89 -0.246203 0.134945 0.00976417 0.00971504 3.33958e-06 0.00974803 1.71574e-07 272.832 
-0.29 -0.89 -0.228721 -0.0134449 0.00976034 0.00971154 7.40456e-06 0.00974261 1.71379e-07 272.991 
-0.27 -0.89 -0.364854 0.218222 0.00975415 0.0097173 9.05325e-06 0.00974375 1.71473e-07 272.873 
-0.31 -0.87 -0.45462 0.113516 0.00976001 0.00971632 8.64465e-06 0.00973794 1.71436e-07 272.769 
-0.29 -0.87 -0.41421 -0.00192245 0.009756 0.00970999 8.88741e-06 0.00973871 1.7135e-07 272.927 
-0.27 -0.87 -0.393446 0.231991 0.00975643 0.00971813 1.3522e-05 0.00974221 1.7142e-07 272.914 
-0.31 -0.85 -0.430294 -0.0905103 0.00976631 0.00972155 1.8952e-05 0.00974581 1.71478e-07 272.923 
-0.29 -0.85 -0.295021 0.124066 0.00975647 0.00970901 1.29549e-05 0.00974156 1.7139e-07 272.944 
-0.27 -0.85 -0.346804 0.154119 0.00975283 0.00971487 1.17427e-05 0.00973785 1.71168e-07 273.194 
-0.25 -0.99 -0.26025 0.100252 0.00974692 0.00973569 1.22856e-05 0.0097426 1.71362e-07 273.018 
-0.25 -0.97 -0.165587 0.123646 0.00974843 0.00973146 5.53672e-06 0.00974241 1.71524e-07 272.755 
-0.25 -0.95 -0.418201 0.0648203 0.00974628 0.00973334 1.02902e-05 0.00974144 1.71425e-07 272.885 
-0.25 -0.93 -0.116564 0.0937362 0.0097588 0.00973594 1.40406e-05 0.00974483 1.71578e-07 272.737 
-0.25 -0.91 -0.234602 0.118589 0.00975922 0.00972984 1.16433e-05 0.0097462 1.71576e-07 272.778 
-0.25 -0.89 -0.358204 0.176631 0.00975236 0.00972281 1.36505e-05 0.00973844 1.71341e-07 272.934 
-0.25 -0.87 -0.430607 0.201592 0.00974953 0.0097164 1.58577e-05 0.00973767 1.71285e-07 273.002 
-0.25 -0.85 -0.276215 0.302453 0.00976089 0.00972037 1.09445e-05 0.00974716 1.71392e-07 273.097 
-0.25 -0.83 -0.424665 0.229433 0.0097578 0.00971502 6.30041e-06 0.0097443 1.71345e-07 273.092 
-0.33 -0.81 -0.0231766 0.178449 0.00976271 0.0097112 1.30313e-05 0.00973885 1.71443e-07 272.784 
-0.31 -0.81 -0.169112 0.124689 0.0097775 0.00972269 1.364e-05 0.00975422 1.71491e-07 273.137 
-0.29 -0.81 -0.207006 0.112158 0.00978032 0.00972508 1.1824e-05 0.00975764 1.71506e-07 273.209 
-0.27 -0.81 -0.318559 0.313171 0.00977425 0.00972017 1.30849e-05 0.00975464 1.71498e-07 273.138 
-0.31 -0.79 -0.275314 0.182579 0.00975698 0.00971653 8.1312e-06 0.00973866 1.71406e-07 272.838 
-0.29 -0.79 -0.391504 0.355978 0.00976037 0.00972086 1.09682e-05 0.00974006 1.71482e-07 272.755 
-0.33 -0.77 -0.311005 0.329754 0.0097693 0.00972168 1.64763e-05 0.00974614 1.7146e-07 272.961 
-0.27 -0.79 -0.450606 0.207259 0.00976586 0.00971622 1.65235e-05 0.00974425 1.71472e-07 272.889 
-0.31 -0.77 -0.264974 0.201933 0.00976456 0.00971404 1.28022e-05 0.00974223 1.71485e-07 272.811 
-0.29 -0.77 -0.277061 0.372723 0.00975542 0.00971798 1.17471e-05 0.00974029 1.71558e-07 272.641 
-0.27 -0.77 -0.357358 0.26816 0.00975584 0.00971285 9.01046e-06 0.00974142 1.71414e-07 272.902 
-0.31 -0.75 -0.152803 0.391526 0.00976098 0.00971809 1.03568e-05 0.00974856 1.71576e-07 272.843 
-0.29 -0.75 -0.491063 0.394276 0.00976339 0.00972012 1.44916e-05 0.00974956 1.71574e-07 272.875 
-0.27 -0.75 -0.471823 0.483022 0.00976387 0.00971254 1.60801e-05 0.0097396 1.71375e-07 272.912 
-0.49 -0.83 -0.0948854 0.339822 0.00975264 0.00971757 -2.09726e-06 0.00973598 1.71384e-07 272.797 
-0.47 -0.83 -0.166823 0.224565 0.00975442 0.00972001 2.57572e-06 0.00973984 1.71616e-07 272.536 
-0.45 -0.83 -0.175421 0.217758 0.00975561 0.00972143 -1.1883e-06 0.00974114 1.71482e-07 272.786 
-0.49 -0.81 -0.0163196 0.400613 0.00976221 0.00971956 -1.18827e-06 0.0097427 1.71489e-07 272.818 
-0.43 -0.83 -0.117637 0.152425 0.00975379 0.00972782 3.50548e-06 0.00974349 1.71539e-07 272.76 
-0.47 -0.81 -0.0826905 0.257362 0.00976218 0.00971939 -5.14733e-07 0.00974522 1.71494e-07 272.881 
-0.45 -0.81 -0.0833061 0.203007 0.00976775 0.00972431 6.11777e-07 0.00974457 1.71536e-07 272.796 
-0.49 -0.79 0.0024794 0.507103 0.00975811 0.00972024 1.21714e-06 0.00974088 1.71386e-07 272.93 
-0.43 -0.81 -0.138643 0.240452 0.00976565 0.00971802 2.92945e-06 0.00974493 1.71665e-07 272.601 
-0.47 -0.79 0.00494738 0.190804 0.00975589 0.00971969 -8.27814e-06 0.00974291 1.71416e-07 272.941 
-0.41 -0.81 -0.27636 0.239 0.00976403 0.00972981 1.08618e-05 0.00975201 1.71576e-07 272.94 
-0.45 -0.79 -0.064644 0.295555 0.00975588 0.00971726 1.22506e-06 0.00973531 1.71429e-07 272.707 
-0.49 -0.77 0.0621631 0.380552 0.00976266 0.00972117 6.02029e-06 0.00974648 1.7142e-07 273.034 
-0.39 -0.81 -0.26925 0.167989 0.00975544 0.00972038 1.50252e-05 0.00974514 1.71591e-07 272.725 
-0.43 -0.79 -0.352134 0.385745 0.0097641 0.00971562 2.33232e-06 0.00973948 1.71517e-07 272.683 
-0.47 -0.77 0.0114926 0.383142 0.0097575 0.0097268 1.12858e-06 0.00974488 1.71403e-07 273.016 
-0.37 -0.81 -0.0423955 0.126925 0.0097531 0.0097157 7.96791e-06 0.0097349 1.71533e-07 272.531 
-0.41 -0.79 -0.351799 0.304581 0.00976927 0.00972532 7.17817e-06 0.00975101 1.71724e-07 272.677 
-0.45 -0.77 -0.304096 0.514484 0.00975517 0.00971128 -5.52924e-06 0.00973565 1.71381e-07 272.793 
-0.35 -0.81 -0.0129706 0.211419 0.0097472 0.00971215 3.82156e-06 0.00973664 1.71367e-07 272.843 
-0.39 -0.79 -0.268504 0.0520875 0.00977255 0.00971909 1.01751e-05 0.00974716 1.71717e-07 272.58 
-0.43 -0.77 -0.244884 0.404186 0.00975237 0.00971469 8.50594e-07 0.00973512 1.7142e-07 272.716 
-0.37 -0.79 -0.285821 0.103366 0.00977826 0.00971714 1.06555e-05 0.00974916 1.71617e-07 272.796 
-0.41 -0.77 -0.284181 0.138582 0.00975281 0.00971319 7.00247e-06 0.00973631 1.71431e-07 272.731 
-0.35 -0.79 -0.170526 0.0907228 0.00977662 0.00971538 1.57571e-05 0.00974757 1.71585e-07 272.802 
-0.39 -0.77 -0.127839 0.062099 0.00975277 0.00972388 1.03582e-05 0.00974496 1.716e-07 272.705 
-0.43 -0.75 0.0524762 0.177424 0.00976359 0.00971542 -4.40998e-06 0.00974253 1.71459e-07 272.861 
-0.33 -0.79 -0.18466 0.271833 0.00976121 0.00971226 3.99772e-06 0.00973668 1.7142e-07 272.759 
-0.37 -0.77 -0.10335 0.133032 0.00975743 0.00971408 3.99726e-06 0.00973756 1.71449e-07 272.737 
-0.41 -0.75 0.0375252 0.330474 0.00976617 0.00970344 4.99826e-06 0.00974246 1.71546e-07 272.72 
-0.35 -0.77 -0.349739 0.222078 0.00976633 0.00971317 7.87314e-06 0.00973953 1.71341e-07 272.964 
-0.39 -0.75 -0.212245 0.0814905 0.00977164 0.0097251 4.95174e-06 0.00975104 1.7166e-07 272.78 
-0.49 -0.75 -0.0237934 0.315762 0.009757 0.00972529 6.69856e-06 0.00974484 1.71407e-07 273.008 
-0.47 -0.75 -0.070832 0.568924 0.00975803 0.00973408 5.45056e-06 0.00974183 1.71335e-07 273.039 
-0.45 -0.75 -0.0687815 0.624535 0.00975759 0.00970806 -2.72082e-06 0.00972982 1.71391e-07 272.614 
-0.49 -0.73 -0.122697 0.498875 0.00977264 0.00972005 5.42957e-06 0.00974583 1.71372e-07 273.092 
-0.47 -0.73 -0.243459 0.514613 0.00977482 0.00974448 5.36764e-06 0.00975542 1.71482e-07 273.186 
-0.45 -0.73 -0.0915419 0.351819 0.00977303 0.0097166 -7.91675e-06 0.00974055 1.71465e-07 272.796 
-0.49 -0.71 0.00260214 0.618112 0.0097731 0.00971853 1.0796e-06 0.00974311 1.71516e-07 272.787 
-0.43 -0.73 -0.0088364 0.313568 0.00976058 0.00970684 2.50851e-06 0.00973513 1.71383e-07 272.776 
-0.47 -0.71 -0.0160736 0.554054 0.00977524 0.00974202 1.74001e-07 0.00975645 1.71572e-07 273.071 
-0.37 -0.75 -0.228346 0.0977589 0.0097611 0.00971362 1.30675e-05 0.00973777 1.7148e-07 272.695 
-0.41 -0.73 -0.0565183 0.331122 0.00976075 0.00970084 -1.95247e-06 0.00973829 1.71556e-07 272.587 
-0.45 -0.71 0.0701716 0.219932 0.00976653 0.00972046 1.03884e-05 0.00974189 1.71407e-07 272.925 
-0.49 -0.69 0.0389567 0.554844 0.00976916 0.00971723 -5.76856e-06 0.0097442 1.71497e-07 272.848 
-0.35 -0.75 -0.0711141 0.271897 0.0097533 0.00970911 9.6308e-06 0.00973469 1.71344e-07 272.825 
-0.39 -0.73 -0.0868915 0.173712 0.00976336 0.0097104 1.05638e-05 0.00973918 1.71371e-07 272.908 
-0.43 -0.71 -0.0798983 0.348734 0.0097642 0.00970763 2.15413e-06 0.0097401 1.71565e-07 272.625 
-0.47 -0.69 0.139698 0.468932 0.00977142 0.0097301 3.52372e-06 0.00975076 1.71482e-07 273.055 
-0.37 -0.73 -0.285232 0.162788 0.00976993 0.0097205 1.23577e-05 0.00974657 1.7156e-07 272.814 
-0.41 -0.71 -0.0955748 0.448029 0.00976548 0.00969512 4.3411e-07 0.00973736 1.71653e-07 272.407 
-0.45 -0.69 0.0214025 0.369698 0.00977975 0.00971892 9.7231e-06 0.00975234 1.71636e-07 272.855 
-0.35 -0.73 -0.537512 0.398357 0.00976814 0.00971131 9.96543e-06 0.00974442 1.71571e-07 272.735 
-0.39 -0.71 -0.170822 0.196259 0.00976726 0.00971064 9.51802e-08 0.00973862 1.71503e-07 272.681 
-0.43 -0.69 -0.107605 0.484396 0.0097784 0.00971665 9.25733e-06 0.00975475 1.71853e-07 272.577 
-0.33 -0.73 -0.443611 0.0932682 0.00976806 0.00970604 1.40745e-05 0.00974008 1.71547e-07 272.653 
-0.37 -0.71 -0.109215 0.27904 0.00976758 0.00971489 1.37256e-05 0.00974469 1.71543e-07 272.789 
-0.41 -0.69 -0.0733921 0.317346 0.00976942 0.0097029 2.46027e-06 0.00973752 1.71643e-07 272.428 
-0.35 -0.71 -0.247174 0.535454 0.00976839 0.00970638 8.35745e-06 0.00974651 1.71565e-07 272.804 
-0.39 -0.69 -0.0589333 0.398 0.00976065 0.00969934 5.29684e-06 0.0097328 1.71369e-07 272.732 
-0.37 -0.69 -0.298836 0.32626 0.00976313 0.00971157 8.18329e-06 0.00974038 1.71437e-07 272.836 
-0.35 -0.69 -0.262303 0.570673 0.00976459 0.00970437 1.3509e-05 0.00973574 1.71345e-07 272.853 
-0.35 -0.67 -0.230004 0.477748 0.00977156 0.00971519 1.00552e-05 0.00974269 1.71448e-07 272.883 
-0.33 -0.67 -0.278522 0.544575 0.00975766 0.00970094 6.56132e-06 0.00974079 1.71524e-07 272.709 
-0.33 -0.75 -0.0805054 0.220742 0.00975458 0.00971304 1.27807e-05 0.00973445 1.71345e-07 272.816 
-0.31 -0.73 -0.456606 0.504812 0.00976626 0.00972492 1.29708e-05 0.00974997 1.71558e-07 272.912 
-0.29 -0.73 -0.322182 0.549806 0.00977023 0.0097103 1.1255e-05 0.00974946 1.7153e-07 272.943 
-0.33 -0.71 -0.529821 0.128338 0.00976818 0.00970942 1.36399e-05 0.00974324 1.71496e-07 272.823 
-0.27 -0.73 -0.426055 0.516505 0.00976637 0.0097205 1.91483e-05 0.00975095 1.71498e-07 273.036 
-0.31 -0.71 -0.431898 0.434441 0.00976882 0.00972394 1.43872e-05 0.00975007 1.71572e-07 272.893 
-0.29 -0.71 -0.421665 0.461199 0.00976215 0.00970711 1.82979e-05 0.00974281 1.71346e-07 273.05 
-0.33 -0.69 -0.273314 0.304731 0.00977416 0.00970837 4.50538e-06 0.00974598 1.71659e-07 272.641 
-0.27 -0.71 -0.374143 0.535986 0.00976475 0.00971511 1.19787e-05 0.00974226 1.71272e-07 273.152 
-0.31 -0.69 -0.497326 0.414184 0.00977735 0.00971664 1.34398e-05 0.00975274 1.7164e-07 272.859 
-0.29 -0.69 -0.456851 0.556802 0.00978034 0.00971347 1.76167e-05 0.00975282 1.71561e-07 272.986 
-0.27 -0.69 -0.485986 0.413552 0.00978165 0.00972122 1.30534e-05 0.00975193 1.71382e-07 273.247 
-0.31 -0.67 -0.402124 0.506507 0.00975732 0.00971151 1.15018e-05 0.0097394 1.71487e-07 272.729 
-0.29 -0.67 -0.442122 0.41536 0.0097631 0.00971367 1.35171e-05 0.00974143 1.71333e-07 273.031 
-0.41 -0.83 -0.203114 0.215366 0.00975655 0.00973052 8.43814e-06 0.00974653 1.71604e-07 272.742 
-0.39 -0.83 -0.163897 0.310985 0.00975444 0.00971893 5.0283e-06 0.00973513 1.71457e-07 272.658 
-0.37 -0.83 -0.14648 0.211488 0.00974827 0.00971528 5.3416e-06 0.00973234 1.71256e-07 272.899 
-0.35 -0.83 -0.263689 0.0906841 0.00975585 0.00971837 1.64592e-05 0.00973537 1.71319e-07 272.884 
-0.33 -0.83 -0.175662 0.302343 0.00975322 0.00972017 1.44661e-05 0.00973597 1.71242e-07 273.023 
-0.31 -0.83 -0.0960008 -0.225846 0.00974685 0.00971249 1.89049e-05 0.00973781 1.71447e-07 272.748 
-0.29 -0.83 -0.263617 0.17076 0.00975437 0.00972137 1.88277e-05 0.00974781 1.71333e-07 273.209 
-0.27 -0.83 -0.344864 0.259299 0.00975562 0.0097182 6.69058e-06 0.00974488 1.71379e-07 273.054 
-0.27 -0.67 -0.477981 0.541758 0.0097619 0.00972061 1.69042e-05 0.00974323 1.71381e-07 273.005 
-0.25 -0.67 -0.453686 0.466686 0.00977326 0.00972279 1.2129e-05 0.00975531 1.7143e-07 273.265 
-0.25 -0.81 -0.304735 0.312705 0.00975948 0.00971482 9.78402e-06 0.00974521 1.71469e-07 272.92 
-0.25 -0.79 -0.298245 0.223708 0.00977186 0.0097247 1.90398e-05 0.00974879 1.71496e-07 272.977 
-0.35 -0.55 -0.274773 0.76473 0.00978364 0.00971443 7.04394e-06 0.00974711 1.71495e-07 272.933 
-0.39 -0.53 -0.260573 0.926308 0.0097801 0.00969066 3.16426e-06 0.00974018 1.71367e-07 272.942 
-0.37 -0.57 -0.253544 0.768084 0.00977221 0.00970241 1.23421e-05 0.009744 1.71341e-07 273.091 
-0.41 -0.55 -0.184414 0.875804 0.00976128 0.00970083 6.87331e-06 0.00973819 1.71417e-07 272.807 
-0.45 -0.53 -0.0531472 0.605874 0.00976457 0.0096981 1.21003e-06 0.00973218 1.71315e-07 272.8 
-0.35 -0.57 -0.223009 0.725363 0.00977958 0.00970589 2.03446e-05 0.0097442 1.71434e-07 272.948 
-0.39 -0.55 -0.266035 0.733924 0.00976204 0.00968552 5.14497e-06 0.00973515 1.71278e-07 272.942 
-0.43 -0.53 -0.159877 0.731133 0.00976991 0.00969398 4.23288e-06 0.00973548 1.71475e-07 272.639 
-0.47 -0.51 -0.0524886 0.789677 0.00976813 0.00970143 -2.61099e-06 0.00973699 1.71523e-07 272.604 
-0.37 -0.55 -0.302351 0.775031 0.00976586 0.00969102 6.13132e-06 0.00973729 1.7124e-07 273.064 
-0.41 -0.53 -0.239206 0.737405 0.00977528 0.00970178 3.02368e-06 0.00973951 1.71487e-07 272.732 
-0.45 -0.51 -0.271372 0.688636 0.00976768 0.00969236 2.387e-06 0.0097337 1.71416e-07 272.682 
-0.37 -0.53 -0.236828 0.734905 0.00978225 0.00969198 -4.07879e-08 0.00974235 1.71471e-07 272.836 
-0.41 -0.51 -0.284634 0.793158 0.00976802 0.00970017 4.11667e-07 0.00973827 1.71442e-07 272.769 
-0.35 -0.53 -0.33909 0.799476 0.00977368 0.00970654 8.37434e-06 0.00974098 1.71536e-07 272.695 
-0.39 -0.51 -0.364635 0.857064 0.00977166 0.00969029 1.77342e-07 0.00973592 1.71465e-07 272.667 
-0.37 -0.51 -0.401815 0.821939 0.00976769 0.00968745 5.34567e-06 0.00973117 1.71246e-07 272.882 
-0.35 -0.51 -0.421699 0.853192 0.0097693 0.00970126 1.09066e-05 0.0097301 1.71337e-07 272.707 
-0.49 -0.65 -0.0259009 0.491774 0.00977272 0.00971996 6.44509e-06 0.00974812 1.71463e-07 273.011 
-0.47 -0.65 -0.0687592 0.425233 0.00977091 0.0097182 3.01895e-06 0.00974995 1.71547e-07 272.929 
-0.45 -0.65 -0.0283432 0.583739 0.00976626 0.00972191 8.58624e-06 0.0097501 1.71684e-07 272.716 
-0.49 -0.63 -0.0117647 0.471164 0.0097693 0.00972538 1.98796e-06 0.00975584 1.71784e-07 272.716 
-0.43 -0.65 0.0601824 0.630524 0.00976063 0.0096993 4.98518e-06 0.009737 1.71472e-07 272.686 
-0.47 -0.63 -0.0270985 0.523849 0.00976542 0.0097055 1.62949e-06 0.00974194 1.71565e-07 272.676 
-0.41 -0.65 0.0336203 0.499944 0.00976502 0.00970724 1.11866e-05 0.00974096 1.71442e-07 272.844 
-0.45 -0.63 -0.0606389 0.527799 0.00977418 0.00972342 8.60091e-06 0.00975523 1.71683e-07 272.861 
-0.49 -0.61 -0.0402402 0.592098 0.00976496 0.00971381 -4.19683e-06 0.00974631 1.71514e-07 272.88 
-0.39 -0.65 -0.0850644 0.450787 0.00976233 0.00971286 6.44061e-06 0.00974355 1.71324e-07 273.104 
-0.43 -0.63 -0.107599 0.603793 0.00977865 0.0097077 9.25031e-06 0.00974482 1.71405e-07 273.011 
-0.47 -0.61 -0.129661 0.487034 0.00976898 0.00971071 5.77627e-06 0.00974408 1.71461e-07 272.902 
-0.37 -0.65 -0.188355 0.514335 0.00976234 0.00969597 2.22153e-06 0.00972949 1.71136e-07 273.01 
-0.41 -0.63 -0.118657 0.642958 0.009774 0.00969831 2.35019e-06 0.00974033 1.71425e-07 272.854 
-0.45 -0.61 -0.123687 0.575412 0.00976633 0.00971258 -4.20137e-06 0.00974167 1.71397e-07 272.936 
-0.49 -0.59 -0.0136258 0.562018 0.00977777 0.00970544 -3.86478e-06 0.00975012 1.71674e-07 272.731 
-0.35 -0.65 -0.273335 0.456536 0.00976968 0.00971304 1.08314e-05 0.00973952 1.71398e-07 272.874 
-0.39 -0.63 -0.0826426 0.518455 0.0097818 0.00971692 1.24007e-05 0.00975058 1.7149e-07 273.037 
-0.43 -0.61 -0.0496056 0.653097 0.00977925 0.00970844 3.32149e-06 0.009744 1.71424e-07 272.957 
-0.47 -0.59 0.0751428 0.564129 0.00978673 0.00971582 -4.90538e-06 0.00975307 1.7159e-07 272.948 
-0.37 -0.63 -0.196782 0.529593 0.00976651 0.00969534 1.23773e-05 0.00973044 1.71204e-07 272.928 
-0.41 -0.61 -0.14726 0.542342 0.00977847 0.0097047 1.15111e-05 0.00974244 1.71398e-07 272.955 
-0.45 -0.59 0.00356699 0.444383 0.00978445 0.00971443 6.37701e-07 0.00975395 1.71596e-07 272.963 
-0.49 -0.57 -0.0557772 0.546874 0.0097806 0.0097068 -6.5943e-06 0.00974516 1.71485e-07 272.893 
-0.35 -0.63 -0.326946 0.571666 0.0097619 0.00970268 1.03474e-05 0.00973289 1.7127e-07 272.893 
-0.39 -0.61 -0.0822386 0.469335 0.00977652 0.00970407 1.03471e-05 0.00973904 1.71296e-07 273.023 
-0.43 -0.59 -0.0502163 0.779768 0.0097733 0.00969838 5.32901e-06 0.00974526 1.71577e-07 272.75 
-0.47 -0.57 -0.0494459 0.489026 0.0097697 0.00970978 -4.85989e-06 0.00973878 1.71412e-07 272.83 
-0.37 -0.61 -0.122145 0.748843 0.00977504 0.00970304 1.4588e-05 0.00973986 1.71482e-07 272.749 
-0.41 -0.59 -0.0108249 0.527336 0.00978096 0.00970351 2.56175e-06 0.00973996 1.71405e-07 272.875 
-0.45 -0.57 -0.0603476 0.682991 0.0097725 0.00970666 3.06517e-06 0.00974136 1.71404e-07 272.915 
-0.49 -0.55 -0.0330784 0.637719 0.00975615 0.00970375 -7.63087e-06 0.00973461 1.71327e-07 272.849 
-0.35 -0.61 -0.121888 0.583309 0.00976972 0.00970068 1.06265e-05 0.0097345 1.7133e-07 272.842 
-0.39 -0.59 -0.0650078 0.533035 0.00977803 0.00968977 1.11144e-05 0.00973802 1.7137e-07 272.876 
-0.43 -0.57 0.0445811 0.620633 0.00977396 0.00969839 4.47999e-06 0.00974049 1.71394e-07 272.907 
-0.47 -0.55 -0.153667 0.659526 0.0097682 0.0097008 1.60954e-06 0.0097407 1.71525e-07 272.705 
-0.33 -0.61 -0.359322 0.646862 0.0097677 0.00969868 1.85987e-05 0.00973709 1.71278e-07 272.997 
-0.37 -0.59 -0.123254 0.705978 0.00978454 0.00971465 2.17296e-05 0.00975247 1.71613e-07 272.895 
-0.41 -0.57 -0.0730489 0.646608 0.00976557 0.00970207 1.34245e-05 0.00973812 1.71279e-07 273.025 
-0.45 -0.55 -0.188034 0.540367 0.00976234 0.00970253 3.31278e-06 0.00972982 1.71239e-07 272.855 
-0.49 -0.53 0.004171 0.71419 0.00976572 0.0096972 -2.81137e-06 0.00973852 1.7135e-07 272.923 
-0.35 -0.59 -0.266776 0.718553 0.00977527 0.00969619 1.55717e-05 0.00973446 1.71403e-07 272.725 
-0.39 -0.57 -0.270505 0.718852 0.00976699 0.00968287 6.96412e-06 0.00973383 1.7123e-07 272.983 
-0.43 -0.55 -0.197393 0.53602 0.00975975 0.00969418 9.17166e-06 0.00973161 1.71353e-07 272.724 
-0.47 -0.53 -0.0358515 0.627489 0.00975826 0.00969908 -1.49801e-08 0.00972835 1.71257e-07 272.786 
-0.29 -0.57 -0.517702 0.630887 0.00977575 0.00971173 1.90219e-05 0.00974666 1.71433e-07 273.018 
-0.33 -0.55 -0.449914 0.83167 0.00978697 0.00970962 1.00888e-05 0.00974946 1.71545e-07 272.918 
-0.29 -0.61 -0.304543 0.605689 0.00976965 0.00971934 8.09921e-06 0.00974784 1.71642e-07 272.719 
-0.33 -0.59 -0.255457 0.880489 0.00977476 0.00970432 1.28989e-05 0.0097423 1.71325e-07 273.069 
-0.27 -0.61 -0.344504 0.514651 0.00978025 0.00971167 1.50237e-05 0.00974984 1.71632e-07 272.79 
-0.31 -0.59 -0.44188 0.671687 0.0097754 0.00971089 1.05988e-05 0.00974266 1.71455e-07 272.871 
-0.29 -0.59 -0.32095 0.427054 0.00977762 0.00972102 1.13213e-05 0.00974595 1.71562e-07 272.793 
-0.33 -0.57 -0.306329 0.806311 0.00978038 0.0097121 7.52328e-06 0.00974738 1.71444e-07 273.02 
-0.27 -0.59 -0.401149 0.621249 0.00976726 0.0097015 1.28596e-05 0.0097377 1.7141e-07 272.804 
-0.31 -0.57 -0.308742 0.691923 0.0097812 0.00970731 6.27372e-06 0.009746 1.71519e-07 272.863 
-0.27 -0.57 -0.615352 0.65026 0.00976946 0.00970382 2.63359e-05 0.00974862 1.71581e-07 272.838 
-0.31 -0.55 -0.366605 0.910096 0.0097746 0.00970651 1.84568e-05 0.00974486 1.71443e-07 272.951 
-0.29 -0.55 -0.492027 0.659552 0.00976421 0.0096954 2.29549e-05 0.00973235 1.71283e-07 272.855 
-0.33 -0.53 -0.332515 1.03296 0.00977127 0.00969825 1.33983e-05 0.00973571 1.71269e-07 272.973 
-0.27 -0.55 -0.406086 0.592654 0.0097705 0.00971108 1.70929e-05 0.00974012 1.71401e-07 272.887 
-0.31 -0.53 -0.390743 0.72239 0.00977285 0.00970359 2.4549e-05 0.00974352 1.7147e-07 272.871 
-0.29 -0.53 -0.306524 0.659641 0.00978639 0.00970205 1.73319e-05 0.00975049 1.71522e-07 272.984 
-0.33 -0.51 -0.268575 0.868004 0.00976483 0.00969214 1.72864e-05 0.00973218 1.71134e-07 273.089 
-0.27 -0.53 -0.494272 0.819904 0.00978013 0.00971115 2.25579e-05 0.00974402 1.71469e-07 272.886 
-0.31 -0.51 -0.301442 0.856295 0.00976602 0.00970185 1.59671e-05 0.00973207 1.71311e-07 272.805 
-0.29 -0.51 -0.508257 0.780272 0.00975941 0.00970104 2.31314e-05 0.00973823 1.71435e-07 272.779 
-0.27 -0.51 -0.560333 1.09578 0.00975821 0.009703 2.82478e-05 0.00973594 1.71301e-07 272.928 
-0.33 -0.65 -0.322638 0.477943 0.0097728 0.00970616 1.69128e-05 0.00973964 1.7135e-07 272.954 
-0.31 -0.65 -0.228737 0.646261 0.00976777 0.00971142 1.24595e-05 0.00974297 1.714e-07 272.967 
-0.29 -0.65 -0.484621 0.520151 0.00975895 0.00970522 1.10952e-05 0.00973154 1.71158e-07 273.032 
-0.33 -0.63 -0.282962 0.505553 0.00976074 0.00970815 8.75065e-06 0.00973998 1.7145e-07 272.804 
-0.27 -0.65 -0.434225 0.497539 0.00976942 0.00972361 1.0569e-05 0.00974793 1.71483e-07 272.974 
-0.31 -0.63 -0.419625 0.740364 0.00976201 0.00970459 1.71277e-05 0.00973717 1.71313e-07 272.943 
-0.25 -0.65 -0.503392 0.410393 0.00976511 0.00971899 1.31396e-05 0.00974292 1.71444e-07 272.895 
-0.29 -0.63 -0.428566 0.45746 0.00977185 0.00972064 1.21085e-05 0.00974624 1.71534e-07 272.846 
-0.27 -0.63 -0.459647 0.507438 0.00975889 0.00971525 1.19769e-05 0.00973777 1.71477e-07 272.699 
-0.31 -0.61 -0.420127 0.600967 0.00977255 0.0097131 1.06915e-05 0.00974954 1.71654e-07 272.747 
-0.49 -0.67 0.0492072 0.495324 0.00977268 0.00971749 -5.94401e-06 0.00974391 1.71489e-07 272.853 
-0.47 -0.67 0.0636339 0.42081 0.00977086 0.00972513 2.30213e-06 0.00974581 1.71535e-07 272.833 
-0.45 -0.67 0.0872801 0.478357 0.00976657 0.00971884 3.8929e-06 0.00974767 1.71564e-07 272.838 
-0.43 -0.67 -0.10186 0.64034 0.00977239 0.0097101 8.21793e-06 0.00974578 1.71615e-07 272.704 