ITEM: TIMESTEP
888000
ITEM: NUMBER OF CELLS
2500
ITEM: BOX BOUNDS ss ss pp
-0.5 0.5
-0.5 0.5
-0.5 0.5
ITEM: CELLS xc yc f_U[*] f_V[*] f_Tau[1] f_Tau[2] f_Tau[3] f_Press[*] f_Mrho[*] f_Ttra[*] 
-0.49 -0.49 -0.0246469 0.0419563 0.00966271 0.00955395 -4.66658e-06 0.00960421 1.69409e-07 272.242 
-0.47 -0.49 -0.203318 0.184106 0.009648 0.00955761 -1.07543e-05 0.00960851 1.69195e-07 272.709 
-0.45 -0.49 -0.552885 0.269418 0.00966289 0.0095677 -2.47436e-06 0.0096221 1.6934e-07 272.86 
-0.49 -0.47 -0.140627 0.222025 0.0096573 0.00955484 1.01465e-06 0.00960663 1.6925e-07 272.566 
-0.43 -0.49 -0.738892 -0.0134089 0.00965782 0.00956207 -5.20968e-06 0.00961166 1.69356e-07 272.538 
-0.47 -0.47 -0.384469 0.424624 0.00966788 0.00956632 -4.43993e-06 0.00962382 1.6942e-07 272.78 
-0.41 -0.49 -0.784124 0.0644968 0.00967025 0.00955119 -7.86201e-06 0.00961576 1.69251e-07 272.824 
-0.45 -0.47 -0.458014 0.312689 0.00966732 0.00956338 -1.67077e-05 0.00962209 1.69441e-07 272.698 
-0.49 -0.45 -0.0820322 0.538513 0.00967058 0.00954674 -2.95218e-05 0.00961039 1.69247e-07 272.677 
-0.39 -0.49 -0.815684 -0.0323042 0.00968669 0.0095968 1.52246e-05 0.00964542 1.69719e-07 272.911 
-0.43 -0.47 -0.32631 -0.0559159 0.0096798 0.00957015 -1.15691e-05 0.00962519 1.69372e-07 272.896 
-0.47 -0.45 -0.221755 0.466468 0.00968967 0.00956359 -7.21067e-06 0.00963304 1.69502e-07 272.909 
-0.37 -0.49 -0.721564 0.00469865 0.00967998 0.0095783 1.68798e-05 0.00963056 1.69464e-07 272.9 
-0.41 -0.47 -0.422807 0.177422 0.00967608 0.00954031 -4.93088e-06 0.00962145 1.69347e-07 272.83 
-0.45 -0.45 -0.32859 0.249253 0.00968532 0.00957223 -1.59134e-05 0.00964081 1.69666e-07 272.865 
-0.49 -0.43 -0.0787149 0.573345 0.00970007 0.0095606 -1.19823e-05 0.00962714 1.6955e-07 272.666 
-0.35 -0.49 -0.756757 0.0661395 0.00968515 0.00957492 1.29505e-05 0.00962373 1.69343e-07 272.902 
-0.39 -0.47 -0.426615 0.0737239 0.00967813 0.00957995 -1.66967e-06 0.00962806 1.69597e-07 272.617 
-0.43 -0.45 -0.515957 0.127884 0.00968589 0.0095515 -1.22512e-05 0.0096208 1.69545e-07 272.493 
-0.47 -0.43 -0.0695479 0.510391 0.00969291 0.00955226 -2.94877e-05 0.00962962 1.69696e-07 272.5 
-0.37 -0.47 -0.599022 0.00193886 0.00969466 0.00957181 1.13037e-05 0.00963354 1.69658e-07 272.674 
-0.41 -0.45 -0.518838 0.120541 0.00969523 0.00955126 -4.96388e-06 0.00962766 1.69459e-07 272.827 
-0.45 -0.43 -0.0407598 0.407716 0.00970778 0.00957949 -6.2436e-06 0.00965305 1.70027e-07 272.632 
-0.49 -0.41 -0.0450827 0.648699 0.00970227 0.009584 -1.05177e-05 0.00964749 1.69921e-07 272.646 
-0.35 -0.47 -0.885612 0.158709 0.0097026 0.00958165 1.58263e-05 0.00964661 1.69803e-07 272.809 
-0.39 -0.45 -0.536081 0.163708 0.00969413 0.00956531 -6.56717e-06 0.00963016 1.69757e-07 272.418 
-0.43 -0.43 -0.267989 0.440927 0.00969372 0.00954858 -8.23295e-06 0.00962551 1.69609e-07 272.524 
-0.47 -0.41 -0.205124 0.584714 0.00970132 0.00955248 -2.1406e-05 0.00963523 1.6963e-07 272.766 
-0.37 -0.45 -0.724524 0.276356 0.00969352 0.00957123 5.58557e-06 0.00963069 1.69611e-07 272.668 
-0.41 -0.43 -0.605271 0.212583 0.00968931 0.00955296 -1.56077e-05 0.00962425 1.69332e-07 272.935 
-0.45 -0.41 -0.32625 0.525929 0.00969713 0.00955674 -7.50384e-06 0.00963395 1.69776e-07 272.494 
-0.49 -0.39 -0.12306 0.861384 0.00970844 0.00957715 -1.73802e-05 0.00965121 1.6992e-07 272.752 
-0.35 -0.45 -0.67982 0.142299 0.00969041 0.00956543 6.58311e-06 0.00963831 1.69879e-07 272.453 
-0.39 -0.43 -1.09192 0.35771 0.00969068 0.00954505 6.69966e-08 0.00961507 1.69472e-07 272.448 
-0.43 -0.41 -0.510742 0.498251 0.00970353 0.00956454 -2.67919e-06 0.00963656 1.69652e-07 272.768 
-0.47 -0.39 -0.27431 0.568606 0.00969974 0.00954785 -1.31256e-05 0.00962957 1.69686e-07 272.516 
-0.37 -0.43 -1.13968 0.290349 0.00970041 0.00957201 1.01994e-06 0.0096368 1.69732e-07 272.646 
-0.41 -0.41 -0.43579 0.696704 0.00970044 0.00954759 -9.19014e-06 0.00962721 1.69641e-07 272.521 
-0.45 -0.39 -0.305752 0.976577 0.00969662 0.0095557 -1.70887e-05 0.00963409 1.69655e-07 272.693 
-0.35 -0.43 -1.01717 0.183075 0.00971713 0.00957548 -3.54594e-06 0.00964831 1.69721e-07 272.989 
-0.39 -0.41 -0.484973 0.329311 0.00969549 0.00953957 -1.35715e-05 0.00962648 1.69553e-07 272.641 
-0.43 -0.39 -0.38695 0.57949 0.0097226 0.00955527 -1.90582e-05 0.00964122 1.69596e-07 272.99 
-0.37 -0.41 -0.623613 0.425714 0.0097162 0.00957548 -1.83003e-05 0.00965633 1.70005e-07 272.761 
-0.41 -0.39 -0.469933 0.501808 0.00973402 0.00954961 -7.84253e-06 0.00965126 1.69877e-07 272.822 
-0.35 -0.41 -0.855638 0.32124 0.00971406 0.00955881 1.80268e-06 0.00964756 1.698e-07 272.841 
-0.39 -0.39 -0.603235 0.559835 0.0097309 0.0095579 -3.8942e-06 0.00965679 1.69912e-07 272.923 
-0.37 -0.39 -0.944067 0.602397 0.0097052 0.00955895 -9.60138e-06 0.0096469 1.70116e-07 272.315 
-0.41 -0.37 -0.576603 0.531972 0.00970093 0.00954751 -1.22383e-05 0.00963831 1.69646e-07 272.827 
-0.35 -0.39 -1.09403 0.571319 0.00969576 0.00955108 -3.17528e-06 0.00963595 1.69713e-07 272.652 
-0.33 -0.39 -1.19026 0.645197 0.00972058 0.0095672 -4.24033e-06 0.0096454 1.69854e-07 272.694 
-0.33 -0.49 -0.853041 -0.044874 0.00968897 0.00957043 1.65201e-05 0.00963406 1.69542e-07 272.874 
-0.33 -0.47 -0.861745 0.0277545 0.00969579 0.00958013 7.04056e-06 0.00965396 1.69819e-07 272.991 
-0.33 -0.43 -1.12871 0.377377 0.00970513 0.00957049 1.09516e-05 0.00964443 1.698e-07 272.753 
-0.49 -0.37 -0.215197 1.2324 0.00970962 0.00957742 -1.66111e-05 0.00965207 1.69789e-07 272.987 
-0.47 -0.37 -0.316037 0.605673 0.00971549 0.00955932 -8.79166e-06 0.00964516 1.69735e-07 272.878 
-0.45 -0.37 -0.467661 0.877913 0.00971453 0.00956772 -2.81442e-05 0.00964429 1.69664e-07 272.967 
-0.49 -0.35 0.166162 1.22644 0.00970843 0.00956818 -1.96181e-05 0.00964082 1.69567e-07 273.025 
-0.43 -0.37 -0.47215 0.690261 0.00970782 0.00954034 -2.3365e-05 0.00963674 1.69506e-07 273.008 
-0.47 -0.35 0.15365 0.697899 0.00970858 0.00956116 -2.12755e-05 0.00963454 1.69582e-07 272.823 
-0.45 -0.35 -0.0523017 1.01093 0.00971134 0.00957052 -2.0513e-05 0.00964816 1.69988e-07 272.556 
-0.49 -0.33 0.0782958 0.923036 0.00967952 0.00956445 -3.13959e-05 0.00962437 1.69282e-07 273.018 
-0.39 -0.37 -0.59476 0.937252 0.0097074 0.00955466 -7.93815e-06 0.00964301 1.69685e-07 272.897 
-0.43 -0.35 -0.28578 1.00062 0.00969684 0.00954013 -1.59961e-05 0.00963223 1.69576e-07 272.768 
-0.47 -0.33 -0.0739736 1.25213 0.00969305 0.00955458 -2.34932e-05 0.00963526 1.69589e-07 272.832 
-0.37 -0.37 -0.853499 0.797829 0.00971788 0.00955769 2.87886e-06 0.00964706 1.69744e-07 272.918 
-0.41 -0.35 -0.749804 0.677727 0.00970747 0.0095415 -1.92563e-05 0.00964771 1.69829e-07 272.8 
-0.45 -0.33 -0.257327 1.17889 0.00969549 0.00956528 -1.32473e-05 0.00964172 1.69833e-07 272.623 
-0.49 -0.31 -0.101174 0.93334 0.00970938 0.0095781 -1.86197e-05 0.00964959 1.69887e-07 272.76 
-0.39 -0.35 -1.14287 1.03426 0.00971473 0.00954787 -1.45536e-05 0.00964989 1.69878e-07 272.782 
-0.43 -0.33 -0.411154 1.05676 0.0097047 0.00955585 -2.21774e-05 0.00964053 1.69859e-07 272.547 
-0.47 -0.31 -0.375796 1.4853 0.00970015 0.00955082 -2.57082e-05 0.00964122 1.69859e-07 272.566 
-0.37 -0.35 -0.804942 0.793162 0.00972487 0.00955715 -5.3211e-06 0.00964967 1.69757e-07 272.97 
-0.41 -0.33 -0.604967 1.28274 0.00970633 0.00953006 -2.42277e-05 0.00962797 1.6968e-07 272.48 
-0.45 -0.31 -0.496844 1.3481 0.00971055 0.00956819 -2.84137e-05 0.00964501 1.6974e-07 272.865 
-0.49 -0.29 -0.149473 1.31757 0.00971299 0.00957119 -3.23664e-05 0.00964876 1.69805e-07 272.868 
-0.35 -0.35 -1.0283 0.939664 0.0097246 0.00956114 -8.96218e-06 0.00964405 1.69883e-07 272.608 
-0.39 -0.33 -0.896696 0.944841 0.00971715 0.00955396 -1.71202e-05 0.0096461 1.69922e-07 272.604 
-0.43 -0.31 -0.184548 1.12296 0.00972175 0.00956319 -3.05161e-05 0.00965419 1.7012e-07 272.515 
-0.47 -0.29 -0.142342 1.55297 0.00972658 0.00955668 -3.26582e-05 0.00965168 1.6982e-07 272.926 
-0.37 -0.33 -0.83698 0.795191 0.00971512 0.00954042 -1.94464e-05 0.00964418 1.69701e-07 272.906 
-0.41 -0.31 -0.488712 1.66293 0.0097208 0.00952813 -1.98314e-05 0.00963757 1.70095e-07 272.086 
-0.45 -0.29 -0.134775 1.09378 0.009729 0.00956575 -3.10592e-05 0.00966271 1.69825e-07 273.229 
-0.35 -0.33 -1.06651 1.36831 0.00972569 0.00957674 -8.56322e-06 0.00966045 1.7e-07 272.884 
-0.39 -0.31 -0.636439 1.15599 0.00971533 0.00954278 -2.82658e-05 0.00964714 1.69813e-07 272.809 
-0.43 -0.29 -0.281065 1.21719 0.00972042 0.00955407 -2.41403e-05 0.00965092 1.70051e-07 272.533 
-0.47 -0.27 -0.277849 1.34698 0.00970624 0.00956591 -3.39902e-05 0.00963995 1.69613e-07 272.927 
-0.33 -0.33 -1.24899 1.13881 0.00971488 0.00954054 -6.45959e-06 0.00963735 1.69882e-07 272.421 
-0.37 -0.31 -1.22327 0.949459 0.00971621 0.00954248 -1.80108e-05 0.00964084 1.69799e-07 272.653 
-0.41 -0.29 -0.382303 1.74082 0.00971769 0.00953707 -3.28193e-05 0.00964559 1.6983e-07 272.737 
-0.45 -0.27 -0.101344 1.40915 0.00971204 0.00956056 -3.14574e-05 0.00964463 1.69945e-07 272.526 
-0.35 -0.31 -1.3091 1.48004 0.00972426 0.00955692 -6.69227e-06 0.00965372 1.7007e-07 272.583 
-0.39 -0.29 -0.550983 1.60372 0.00972396 0.00953363 -1.93137e-05 0.00963826 1.69982e-07 272.286 
-0.43 -0.27 -0.471346 1.56303 0.00971194 0.00955586 -2.29303e-05 0.00963706 1.69831e-07 272.494 
-0.37 -0.29 -0.880002 1.3428 0.00972632 0.00954119 -2.03614e-05 0.0096427 1.69837e-07 272.644 
-0.41 -0.27 -0.542433 1.69903 0.0097125 0.00953881 -3.27378e-05 0.00963948 1.69856e-07 272.524 
-0.35 -0.29 -0.795286 1.41869 0.00971286 0.00953496 -1.01378e-05 0.00963582 1.6968e-07 272.702 
-0.39 -0.27 -0.530172 1.75633 0.00970546 0.00952302 -1.55326e-05 0.00961882 1.69447e-07 272.595 
-0.33 -0.29 -0.994637 1.15558 0.00972823 0.00954581 -4.2294e-06 0.00964437 1.69968e-07 272.481 
-0.37 -0.27 -0.724848 1.49666 0.00970652 0.0095341 -1.32109e-05 0.00962331 1.69628e-07 272.432 
-0.35 -0.27 -1.11915 1.58718 0.00971409 0.00953456 -1.22662e-05 0.00962945 1.69863e-07 272.228 
-0.33 -0.27 -1.35871 1.46266 0.00970975 0.0095424 -6.97446e-06 0.00962816 1.6975e-07 272.372 
-0.35 -0.37 -1.12903 0.606974 0.00972405 0.00955719 -1.33348e-05 0.00964712 1.6989e-07 272.684 
-0.33 -0.37 -1.31205 0.923463 0.0097219 0.00956235 -6.70087e-06 0.0096444 1.70004e-07 272.424 
-0.33 -0.35 -1.39844 1.05631 0.00972835 0.00955461 -1.66378e-05 0.00964982 1.69951e-07 272.663 
-0.33 -0.31 -1.12343 1.21038 0.0097191 0.00953392 2.04968e-06 0.00964336 1.70024e-07 272.363 
-0.31 -0.49 -0.735321 -0.162381 0.00969699 0.00960048 4.95964e-06 0.00965429 1.69882e-07 272.9 
-0.29 -0.49 -0.824747 0.170266 0.00969563 0.00961106 2.84708e-05 0.00965807 1.70093e-07 272.667 
-0.27 -0.49 -0.944635 -0.0276938 0.00968223 0.00959637 2.67942e-05 0.00965028 1.69993e-07 272.609 
-0.31 -0.47 -1.02823 -0.0651607 0.00969644 0.00958122 8.19855e-06 0.00964905 1.69781e-07 272.913 
-0.29 -0.47 -1.10489 0.173386 0.00970168 0.00960101 3.24247e-05 0.00966033 1.70045e-07 272.808 
-0.27 -0.47 -1.1066 0.0542625 0.00970751 0.00960272 2.88816e-05 0.00965089 1.70009e-07 272.6 
-0.31 -0.45 -1.23648 0.0633031 0.00970778 0.00957307 1.9145e-05 0.00964342 1.70007e-07 272.392 
-0.29 -0.45 -1.33261 0.166926 0.00970847 0.00958488 1.5668e-05 0.00965512 1.69968e-07 272.785 
-0.27 -0.45 -1.16611 0.0342627 0.0097405 0.00961779 1.51464e-05 0.00967617 1.70207e-07 272.995 
-0.31 -0.43 -1.10413 0.327354 0.00971091 0.00956872 8.33418e-06 0.00964865 1.70045e-07 272.479 
-0.29 -0.43 -1.0743 0.0229743 0.00972722 0.00959741 7.31035e-06 0.00965921 1.70119e-07 272.659 
-0.27 -0.43 -1.39309 0.138084 0.00971636 0.00960565 6.5138e-06 0.00966874 1.7017e-07 272.846 
-0.31 -0.41 -1.0855 0.279136 0.00971528 0.0095747 1.57529e-06 0.00965278 1.70022e-07 272.633 
-0.25 -0.43 -1.55264 0.084818 0.00972532 0.00961128 2.50366e-05 0.00967462 1.70373e-07 272.687 
-0.29 -0.41 -1.38449 0.31208 0.0097134 0.00959483 -4.28305e-06 0.00966445 1.70037e-07 272.938 
-0.27 -0.41 -1.64401 0.231103 0.00971514 0.00959158 9.61146e-06 0.00965983 1.7008e-07 272.738 
-0.31 -0.39 -1.35229 0.329402 0.00973333 0.00957868 -2.35427e-07 0.00965757 1.70074e-07 272.685 
-0.25 -0.41 -1.83796 0.513986 0.00971569 0.00960556 2.20243e-05 0.00966986 1.70237e-07 272.77 
-0.29 -0.39 -1.49907 0.598104 0.00973731 0.0095935 5.59344e-06 0.00966566 1.70207e-07 272.7 
-0.27 -0.39 -1.66281 0.293964 0.00973374 0.00957339 4.76259e-06 0.00966071 1.70069e-07 272.781 
-0.31 -0.37 -1.43334 0.459183 0.00971964 0.00957142 -5.95329e-06 0.00965383 1.70102e-07 272.534 
-0.25 -0.39 -1.68025 0.765153 0.00973335 0.00960681 1.35018e-05 0.00967769 1.70213e-07 273.03 
-0.29 -0.37 -1.57048 0.83691 0.00971765 0.0095837 3.78373e-06 0.00965112 1.69818e-07 272.912 
-0.27 -0.37 -1.82386 0.590596 0.0097235 0.0095778 1.56098e-05 0.00965166 1.69911e-07 272.779 
-0.31 -0.35 -1.56221 0.921448 0.00973062 0.00956681 -3.81353e-06 0.00965621 1.70131e-07 272.555 
-0.29 -0.35 -1.80476 0.588265 0.00972809 0.00957476 6.74551e-06 0.00966225 1.69958e-07 273.003 
-0.27 -0.35 -1.57899 0.745157 0.00972468 0.00958569 5.32641e-06 0.00966084 1.70131e-07 272.686 
-0.31 -0.33 -1.34407 1.10454 0.00970162 0.00955725 8.66313e-06 0.00964772 1.70112e-07 272.345 
-0.29 -0.33 -1.24465 0.735766 0.00970535 0.00957055 -1.57581e-06 0.00965025 1.70052e-07 272.514 
-0.27 -0.33 -1.78462 1.02768 0.00971349 0.00958418 9.05378e-06 0.00965882 1.69956e-07 272.909 
-0.31 -0.31 -0.987984 1.02066 0.00973131 0.00955935 -3.57423e-06 0.00965426 1.70208e-07 272.376 
-0.29 -0.31 -1.49634 1.16898 0.0097374 0.0095781 -8.30634e-08 0.00966504 1.70168e-07 272.744 
-0.27 -0.31 -1.5275 1.20722 0.00972998 0.00956949 -6.81673e-06 0.00966046 1.70182e-07 272.592 
-0.31 -0.29 -1.31669 1.2904 0.00972172 0.00955603 -5.05237e-06 0.00964341 1.70001e-07 272.401 
-0.25 -0.31 -1.71786 1.24821 0.00973543 0.00958555 1.80045e-05 0.00966692 1.70189e-07 272.764 
-0.29 -0.29 -1.59439 1.45043 0.00972019 0.00957802 -2.45655e-07 0.00965173 1.70022e-07 272.603 
-0.27 -0.29 -1.92018 1.44208 0.0097169 0.00956233 5.95962e-06 0.00964486 1.69903e-07 272.6 
-0.31 -0.27 -1.67208 1.62694 0.00972163 0.00955259 -1.48531e-06 0.00963587 1.69907e-07 272.338 
-0.25 -0.29 -1.94618 1.21457 0.0097261 0.00957857 2.9012e-06 0.00965955 1.70095e-07 272.706 
-0.29 -0.27 -1.49582 1.63428 0.00972295 0.00956737 -5.03053e-08 0.00965489 1.701e-07 272.567 
-0.27 -0.27 -1.60834 1.33743 0.00973243 0.00957601 -1.39719e-06 0.00966069 1.69889e-07 273.07 
-0.25 -0.27 -1.61997 1.41772 0.00972274 0.00956733 -2.1951e-06 0.00964878 1.69973e-07 272.598 
-0.33 -0.45 -0.892244 0.29468 0.00971276 0.00959003 3.98786e-06 0.00965926 1.70169e-07 272.58 
-0.33 -0.41 -0.969958 0.608273 0.00971651 0.00956593 1.43557e-05 0.00964877 1.70025e-07 272.514 
-0.25 -0.49 -1.05977 -0.021019 0.00969357 0.00961934 3.41139e-05 0.00965932 1.70012e-07 272.833 
-0.23 -0.49 -1.12615 0.177825 0.00970271 0.00960882 3.26521e-05 0.00965835 1.69979e-07 272.859 
-0.25 -0.47 -1.17856 0.0732622 0.00971075 0.0096165 1.62561e-05 0.00965955 1.70118e-07 272.669 
-0.23 -0.47 -1.25773 0.398945 0.00972555 0.00962103 1.80402e-05 0.00967444 1.70328e-07 272.753 
-0.25 -0.45 -1.02575 0.155386 0.00973972 0.00961999 1.7915e-05 0.0096843 1.70428e-07 272.871 
-0.23 -0.45 -1.4114 0.580084 0.00973278 0.00960826 2.16641e-05 0.00967667 1.7028e-07 272.893 
-0.25 -0.37 -1.78593 0.297112 0.00972533 0.00959167 7.45873e-06 0.00966478 1.7005e-07 272.926 
-0.25 -0.35 -1.95342 0.541418 0.00972465 0.00957947 8.51114e-06 0.00966141 1.69998e-07 272.914 
-0.25 -0.33 -2.17887 0.932424 0.00971787 0.00958669 6.98466e-06 0.0096616 1.70076e-07 272.794 
-0.49 -0.25 -0.118184 1.64564 0.00970022 0.00955247 -4.18034e-05 0.0096329 1.6972e-07 272.555 
-0.47 -0.25 -0.0765657 1.61115 0.00971349 0.00956669 -4.23653e-05 0.00963867 1.69919e-07 272.4 
-0.45 -0.25 -0.326803 1.47068 0.00971807 0.00954309 -3.77453e-05 0.00964728 1.69961e-07 272.575 
-0.49 -0.23 0.0847834 1.80935 0.00968254 0.00955379 -5.52404e-05 0.00961788 1.69511e-07 272.465 
-0.47 -0.23 -0.112269 1.57656 0.00968863 0.0095534 -5.01472e-05 0.00963909 1.69925e-07 272.401 
-0.45 -0.23 -0.54215 1.82867 0.00969174 0.009534 -3.38363e-05 0.00962665 1.69816e-07 272.224 
-0.49 -0.21 -0.0611026 1.67304 0.0096969 0.00956908 -5.86481e-05 0.00964338 1.7002e-07 272.37 
-0.43 -0.23 -0.611423 1.82942 0.0096999 0.00954281 -3.62374e-05 0.00962511 1.69489e-07 272.706 
-0.47 -0.21 -0.142075 1.93749 0.00969828 0.00953881 -5.02472e-05 0.00963869 1.69965e-07 272.325 
-0.41 -0.23 -0.750342 1.93206 0.00971581 0.00952904 -2.51052e-05 0.0096314 1.6988e-07 272.256 
-0.45 -0.21 -0.209154 2.15362 0.00970366 0.00953317 -4.95781e-05 0.00961371 1.69681e-07 272.074 
-0.49 -0.19 -0.0394552 1.89834 0.00968391 0.00954677 -6.77266e-05 0.00962532 1.69857e-07 272.121 
-0.39 -0.23 -0.860966 1.68043 0.00971515 0.00953554 -3.04242e-05 0.00962794 1.69708e-07 272.434 
-0.43 -0.21 -0.431873 1.82497 0.00970956 0.00952923 -3.62698e-05 0.0096202 1.69641e-07 272.322 
-0.47 -0.19 -0.108759 1.9055 0.00969191 0.00953806 -5.77941e-05 0.00963247 1.69951e-07 272.173 
-0.41 -0.21 -0.591576 1.93942 0.00970911 0.00953229 -3.34992e-05 0.00962322 1.69693e-07 272.325 
-0.45 -0.19 -0.166635 2.24659 0.00969425 0.00953225 -4.80543e-05 0.00961624 1.69467e-07 272.489 
-0.49 -0.17 -0.152808 2.07131 0.0096957 0.00953349 -6.83355e-05 0.00961736 1.69738e-07 272.086 
-0.39 -0.21 -0.73276 1.98098 0.00971718 0.00953064 -3.62935e-05 0.0096261 1.69787e-07 272.255 
-0.43 -0.19 -0.474188 2.07378 0.00969332 0.00951474 -4.81876e-05 0.00960605 1.69303e-07 272.465 
-0.47 -0.17 -0.283866 2.07371 0.00969685 0.00952834 -6.25784e-05 0.00962462 1.69889e-07 272.049 
-0.41 -0.19 -0.542897 2.25061 0.00970893 0.00953195 -4.02875e-05 0.00962666 1.69616e-07 272.545 
-0.45 -0.17 -0.220758 2.27699 0.00970719 0.00952325 -5.75308e-05 0.0096283 1.69682e-07 272.486 
-0.49 -0.15 -0.00545018 2.31658 0.00969264 0.00951269 -7.55272e-05 0.00961554 1.69725e-07 272.056 
-0.39 -0.19 -1.04668 2.29795 0.0097202 0.00952296 -3.18483e-05 0.00962107 1.69676e-07 272.29 
-0.43 -0.17 -0.39983 2.25841 0.00971283 0.00951334 -4.45047e-05 0.00962587 1.69745e-07 272.315 
-0.47 -0.15 -0.220708 2.03437 0.0096945 0.00952542 -6.15991e-05 0.00962207 1.69725e-07 272.24 
-0.41 -0.17 -0.94116 2.51356 0.00971197 0.00952829 -4.27364e-05 0.00962523 1.6966e-07 272.435 
-0.45 -0.15 -0.372428 2.42142 0.00969395 0.00951139 -5.21733e-05 0.00960929 1.6944e-07 272.337 
-0.39 -0.17 -1.05597 2.62884 0.00969876 0.00950755 -4.13355e-05 0.00961382 1.69434e-07 272.475 
-0.43 -0.15 -0.45094 2.65164 0.00970473 0.00950032 -5.43389e-05 0.0096086 1.6936e-07 272.446 
-0.41 -0.15 -0.615928 2.73152 0.0096985 0.009524 -3.79137e-05 0.00961901 1.69605e-07 272.346 
-0.39 -0.15 -0.863884 2.94712 0.00968902 0.00950765 -3.28045e-05 0.00959988 1.6935e-07 272.215 
-0.49 -0.27 -0.0991401 1.62976 0.00970889 0.00955659 -3.93021e-05 0.0096372 1.69707e-07 272.698 
-0.43 -0.25 -0.480739 1.72393 0.00972271 0.00955775 -2.42197e-05 0.00964661 1.6986e-07 272.717 
-0.41 -0.25 -0.486287 1.81608 0.00971328 0.00952587 -1.56269e-05 0.00962817 1.6974e-07 272.389 
-0.39 -0.25 -0.66147 1.39206 0.00972067 0.00952729 -2.41732e-05 0.00962938 1.69598e-07 272.652 
-0.33 -0.25 -1.48435 1.85395 0.00972559 0.00954489 -1.22019e-05 0.00964257 1.69872e-07 272.585 
-0.37 -0.25 -0.603019 2.16686 0.00972832 0.00953076 -2.10635e-05 0.00963467 1.69875e-07 272.357 
-0.35 -0.25 -1.12376 1.88756 0.00972317 0.00952517 -1.07646e-05 0.00963423 1.69755e-07 272.537 
-0.37 -0.23 -1.06481 2.17008 0.00971726 0.00951937 -2.54929e-05 0.00962425 1.69495e-07 272.672 
-0.35 -0.23 -0.942157 2.08234 0.00973278 0.00951926 -1.3597e-05 0.00962757 1.69816e-07 272.25 
-0.37 -0.21 -1.00218 2.11703 0.00971906 0.00951355 -2.73177e-05 0.00961845 1.69391e-07 272.675 
-0.35 -0.21 -1.08251 2.28775 0.00972645 0.00951893 -3.11636e-05 0.00962608 1.69313e-07 273.017 
-0.37 -0.19 -1.35624 2.26682 0.00971516 0.00951363 -2.59207e-05 0.00960857 1.69362e-07 272.441 
-0.35 -0.19 -1.31963 2.17994 0.00970629 0.00951775 -2.6206e-05 0.00960203 1.69375e-07 272.234 
-0.37 -0.17 -1.28736 2.31103 0.0097108 0.00950998 -2.00961e-05 0.00961485 1.6945e-07 272.478 
-0.35 -0.17 -1.35535 2.25055 0.009706 0.00951522 -1.8436e-05 0.00961381 1.69588e-07 272.227 
-0.33 -0.17 -1.55984 2.45644 0.00969637 0.00951954 -1.77197e-05 0.00961784 1.6963e-07 272.274 
-0.37 -0.15 -1.00428 2.43062 0.00967546 0.00949103 -2.68749e-05 0.00959492 1.69348e-07 272.076 
-0.35 -0.15 -1.21117 2.44392 0.0096893 0.00952297 -2.24553e-05 0.00960667 1.69388e-07 272.346 
-0.33 -0.15 -1.48967 2.55291 0.00970571 0.00951656 -2.47751e-05 0.00962304 1.69455e-07 272.702 
-0.37 -0.13 -1.02389 2.67583 0.00970312 0.00949448 -3.88159e-05 0.0095971 1.69183e-07 272.405 
-0.35 -0.13 -1.07332 2.4002 0.00971327 0.00951744 -3.37756e-05 0.00961117 1.69292e-07 272.627 
-0.33 -0.13 -1.08462 3.06698 0.00970473 0.00951634 -2.4154e-05 0.00961041 1.6917e-07 272.803 
-0.37 -0.11 -0.885243 2.92856 0.00969215 0.00949393 -4.70522e-05 0.00959321 1.69025e-07 272.548 
-0.35 -0.11 -1.2204 2.58722 0.00968414 0.0095009 -3.50259e-05 0.00959272 1.68996e-07 272.58 
-0.33 -0.11 -1.56177 3.23536 0.00968624 0.00950182 -1.28311e-05 0.00960351 1.6913e-07 272.672 
-0.35 -0.09 -1.11977 3.01998 0.00966389 0.00949674 -2.92844e-05 0.00957285 1.68914e-07 272.148 
-0.49 -0.13 0.0246664 2.33952 0.00966865 0.00952126 -8.29875e-05 0.00960429 1.69325e-07 272.38 
-0.47 -0.13 -0.231969 2.45093 0.0096724 0.00950599 -6.86047e-05 0.00959866 1.69623e-07 271.741 
-0.45 -0.13 -0.517771 2.36854 0.00968604 0.00951243 -6.08071e-05 0.00960208 1.69191e-07 272.532 
-0.49 -0.11 0.00108771 2.52381 0.00965846 0.00950693 -8.00155e-05 0.00958413 1.68989e-07 272.348 
-0.43 -0.13 -0.677155 2.93086 0.00968605 0.0095012 -5.35006e-05 0.00960224 1.69438e-07 272.139 
-0.47 -0.11 -0.0892231 2.62945 0.00966349 0.0095048 -7.66659e-05 0.00957913 1.69096e-07 272.034 
-0.41 -0.13 -0.939911 2.89457 0.00967978 0.0095035 -4.24099e-05 0.00960242 1.69249e-07 272.448 
-0.45 -0.11 -0.543808 2.76082 0.00965649 0.00950159 -6.74831e-05 0.00960321 1.69286e-07 272.412 
-0.49 -0.09 -0.0535816 2.56219 0.00964509 0.00950244 -7.47573e-05 0.00958257 1.69156e-07 272.036 
-0.39 -0.13 -0.852236 3.09138 0.00968605 0.00950284 -2.86757e-05 0.00959126 1.69011e-07 272.515 
-0.43 -0.11 -0.880669 3.11453 0.00964954 0.00948325 -5.49412e-05 0.00957624 1.68963e-07 272.165 
-0.47 -0.09 -0.37492 2.97829 0.00964675 0.00949641 -7.65013e-05 0.00957887 1.69017e-07 272.153 
-0.41 -0.11 -0.880997 2.79083 0.00967563 0.00949981 -5.21634e-05 0.00960128 1.69238e-07 272.434 
-0.45 -0.09 -0.415442 3.09507 0.00964753 0.00949192 -7.12882e-05 0.00958098 1.68987e-07 272.261 
-0.39 -0.11 -0.905284 3.03735 0.00969374 0.00950504 -4.267e-05 0.00959711 1.69169e-07 272.427 
-0.43 -0.09 -0.673462 3.2103 0.00966319 0.00948172 -6.35904e-05 0.00958311 1.69158e-07 272.048 
-0.41 -0.09 -0.732343 2.98048 0.00965581 0.00949138 -5.18402e-05 0.00958109 1.68818e-07 272.537 
-0.39 -0.09 -1.00589 3.01621 0.00966499 0.00949816 -5.68567e-05 0.00958198 1.68897e-07 272.435 
-0.37 -0.09 -0.925891 2.84773 0.00966706 0.00948211 -3.11237e-05 0.00957659 1.68965e-07 272.173 
-0.35 -0.03 -1.38093 3.50775 0.0096546 0.00947724 -4.70743e-05 0.00958793 1.69163e-07 272.176 
-0.37 -0.07 -1.33868 3.19131 0.00964614 0.00947686 -4.14512e-05 0.00956865 1.68745e-07 272.301 
-0.41 -0.05 -0.674166 3.58666 0.0096368 0.0094893 -5.17323e-05 0.00956578 1.68767e-07 272.184 
-0.45 -0.03 -0.378841 3.66172 0.00962824 0.00946237 -9.00075e-05 0.00956933 1.68891e-07 272.085 
-0.35 -0.07 -1.47712 3.16575 0.0096676 0.00949617 -3.64242e-05 0.00958256 1.68901e-07 272.446 
-0.39 -0.05 -0.976691 3.37838 0.00964038 0.00946327 -5.14615e-05 0.00956199 1.6871e-07 272.169 
-0.43 -0.03 -0.588929 3.6291 0.00963412 0.00944975 -7.11154e-05 0.00955636 1.68771e-07 271.91 
-0.33 -0.07 -1.58908 3.49822 0.00968554 0.00949691 -3.14736e-05 0.00958771 1.69021e-07 272.398 
-0.37 -0.05 -1.06416 3.31292 0.00964545 0.00947653 -4.95846e-05 0.00957818 1.68805e-07 272.477 
-0.41 -0.03 -0.78627 3.75228 0.00963959 0.00947215 -6.72143e-05 0.00956065 1.68567e-07 272.361 
-0.35 -0.05 -1.36715 3.38233 0.00965549 0.0094859 -5.15946e-05 0.00957686 1.68675e-07 272.648 
-0.39 -0.03 -0.895978 3.66818 0.00964573 0.00946027 -5.56242e-05 0.00956539 1.68719e-07 272.251 
-0.33 -0.05 -1.44365 3.47726 0.0096541 0.00949621 -4.33194e-05 0.00958478 1.68904e-07 272.505 
-0.37 -0.03 -1.10594 3.55009 0.00965971 0.00948563 -5.92366e-05 0.00958149 1.6892e-07 272.384 
-0.33 -0.03 -1.63333 3.41558 0.00966575 0.00949687 -4.8776e-05 0.00959354 1.69246e-07 272.201 
-0.49 -0.07 -0.0761715 2.80852 0.00962238 0.00950113 -8.68803e-05 0.00957979 1.68868e-07 272.42 
-0.47 -0.07 -0.0713465 2.99924 0.00963836 0.0094901 -8.69798e-05 0.0095779 1.69152e-07 271.909 
-0.45 -0.07 -0.274912 3.31951 0.00965045 0.00948507 -7.20147e-05 0.00958106 1.6902e-07 272.21 
-0.49 -0.05 -0.208241 3.00756 0.00963504 0.00949251 -9.8233e-05 0.00957374 1.6886e-07 272.261 
-0.43 -0.07 -0.249079 3.25578 0.00964954 0.00946977 -5.74293e-05 0.0095714 1.68997e-07 271.974 
-0.47 -0.05 -0.112277 3.0113 0.00962628 0.00948272 -8.87302e-05 0.00956627 1.68796e-07 272.151 
-0.41 -0.07 -0.701122 3.28393 0.00965981 0.0094999 -6.80913e-05 0.00958722 1.69036e-07 272.361 
-0.45 -0.05 -0.223751 3.37037 0.00962459 0.0094676 -8.05472e-05 0.00956301 1.68646e-07 272.3 
-0.49 -0.03 0.0537419 3.07601 0.00960375 0.00947469 -0.00010405 0.00955246 1.68505e-07 272.227 
-0.39 -0.07 -0.898623 3.12646 0.00964663 0.00947138 -4.80233e-05 0.00957003 1.68871e-07 272.138 
-0.43 -0.05 -0.571842 3.5237 0.00963591 0.00946841 -7.04128e-05 0.00956631 1.68905e-07 271.977 
-0.47 -0.03 -0.199145 3.172 0.00961253 0.00948116 -9.15934e-05 0.00956189 1.68856e-07 271.93 
-0.27 -0.07 -1.69919 2.80818 0.00968225 0.00954762 -3.00471e-05 0.00961812 1.69598e-07 272.333 
-0.31 -0.05 -1.65723 3.45224 0.00967433 0.00952466 -4.63158e-05 0.00960824 1.69356e-07 272.441 
-0.27 -0.09 -2.0572 2.77324 0.00970539 0.00955841 -2.15918e-05 0.00963229 1.69892e-07 272.261 
-0.31 -0.07 -1.35017 3.20965 0.00967608 0.00952622 -3.28446e-05 0.00960711 1.69306e-07 272.491 
-0.29 -0.07 -1.94699 3.03129 0.00967569 0.00954238 -4.45433e-05 0.00961825 1.69538e-07 272.433 
-0.25 -0.07 -1.70808 2.69827 0.00968689 0.00956823 -1.42196e-05 0.00962904 1.69821e-07 272.283 
-0.29 -0.05 -1.6195 3.13215 0.00968121 0.00954205 -3.16714e-05 0.00962 1.69612e-07 272.364 
-0.27 -0.05 -1.9109 2.80313 0.00967247 0.00953267 -3.97235e-05 0.00961393 1.69571e-07 272.258 
-0.31 -0.03 -1.75721 3.56832 0.00966748 0.00952021 -4.68262e-05 0.00961007 1.69514e-07 272.24 
-0.25 -0.05 -2.12617 2.82699 0.00969044 0.00956518 -2.95262e-05 0.00962723 1.69465e-07 272.805 
-0.29 -0.03 -1.79568 3.30047 0.00966993 0.0095409 -4.96875e-05 0.00962021 1.69647e-07 272.313 
-0.27 -0.03 -1.88672 3.01126 0.00969412 0.00953229 -3.86191e-05 0.00962104 1.69822e-07 272.055 
-0.25 -0.03 -1.96503 2.98738 0.0096946 0.00956928 -4.63904e-05 0.00962918 1.69727e-07 272.439 
-0.31 -0.25 -1.65063 1.6052 0.00972177 0.00954586 -1.10312e-05 0.00964084 1.69901e-07 272.489 
-0.29 -0.25 -1.76144 1.43999 0.00973255 0.00956794 -1.71376e-05 0.00964592 1.69797e-07 272.799 
-0.27 -0.25 -1.74259 1.63071 0.00975035 0.00956485 -1.82276e-06 0.00965959 1.69953e-07 272.936 
-0.29 -0.11 -1.73776 2.53781 0.00970542 0.00955477 -2.38846e-05 0.00962724 1.69671e-07 272.474 
-0.33 -0.09 -1.32439 3.55264 0.00965867 0.00949364 -3.62773e-05 0.00958243 1.68922e-07 272.407 
-0.27 -0.11 -1.9116 2.40842 0.0097086 0.00955667 -1.89978e-05 0.00964063 1.69918e-07 272.455 
-0.31 -0.09 -1.62895 3.05886 0.00967439 0.00951986 -2.96234e-05 0.00961417 1.69433e-07 272.486 
-0.29 -0.09 -1.72338 2.74545 0.00969773 0.00955513 -2.75783e-05 0.00963928 1.69722e-07 272.732 
-0.33 -0.23 -1.12451 2.00784 0.00973728 0.00954727 -7.65398e-06 0.00964319 1.69903e-07 272.552 
-0.31 -0.23 -1.43082 1.78466 0.00974653 0.00955596 -1.94456e-05 0.00964937 1.70123e-07 272.375 
-0.29 -0.23 -1.76901 1.76354 0.00974906 0.00956904 -1.60591e-05 0.00966018 1.70034e-07 272.823 
-0.33 -0.21 -1.14649 2.00849 0.0097322 0.00953825 -2.23559e-05 0.00963637 1.69759e-07 272.591 
-0.27 -0.23 -1.94181 1.6385 0.00973208 0.00954688 -9.02248e-06 0.00964553 1.70022e-07 272.428 
-0.31 -0.21 -1.31697 2.31321 0.00973191 0.00956045 -1.20552e-05 0.00965141 1.69987e-07 272.65 
-0.29 -0.21 -1.57846 1.88269 0.00971093 0.00954958 -3.66429e-06 0.00964001 1.69824e-07 272.589 
-0.33 -0.19 -1.28473 2.13062 0.00970593 0.00952435 -2.19476e-05 0.00962233 1.69473e-07 272.652 
-0.27 -0.21 -1.94893 2.03901 0.00969814 0.0095492 3.96255e-06 0.00963486 1.69869e-07 272.371 
-0.31 -0.19 -1.55459 2.36044 0.00970355 0.0095454 -9.66537e-06 0.00963581 1.69764e-07 272.566 
-0.25 -0.21 -2.17731 1.80133 0.00970934 0.00955988 -8.37628e-08 0.00963374 1.69577e-07 272.809 
-0.29 -0.19 -1.67895 2.08016 0.00970343 0.00954707 2.64758e-06 0.00963261 1.6958e-07 272.772 
-0.27 -0.19 -1.80507 2.27462 0.00971897 0.00955706 -8.01674e-06 0.00963331 1.69801e-07 272.437 
-0.31 -0.17 -1.59285 2.32582 0.00970056 0.00953659 -1.4926e-05 0.00962928 1.69797e-07 272.33 
-0.25 -0.19 -1.8585 2.10558 0.00972232 0.009553 -1.20017e-05 0.0096486 1.6999e-07 272.566 
-0.29 -0.17 -1.68291 2.42628 0.00972814 0.00955097 -8.30092e-06 0.00964298 1.69902e-07 272.548 
-0.27 -0.17 -1.81211 2.12001 0.00972617 0.00956084 -1.58058e-05 0.00964754 1.70048e-07 272.443 
-0.31 -0.15 -1.8157 2.47865 0.00971486 0.00954044 -2.06754e-05 0.00963077 1.69676e-07 272.566 
-0.25 -0.17 -1.71492 2.29501 0.00971966 0.00956087 -1.01215e-05 0.00964512 1.69787e-07 272.793 
-0.29 -0.15 -1.83066 2.3839 0.00969721 0.00952752 -2.03001e-05 0.00961814 1.69494e-07 272.5 
-0.27 -0.15 -1.85544 2.18487 0.00970341 0.00957658 -6.0166e-06 0.00964239 1.69938e-07 272.474 
-0.31 -0.13 -1.53042 2.73548 0.00969209 0.00952099 -1.40492e-05 0.00961295 1.69211e-07 272.809 
-0.25 -0.15 -1.79201 2.24872 0.0097016 0.00955665 -1.13277e-05 0.00964255 1.69804e-07 272.693 
-0.29 -0.13 -1.73851 2.42871 0.0096904 0.00953795 -1.09339e-05 0.00961124 1.69436e-07 272.397 
-0.27 -0.13 -1.84071 2.31131 0.00969975 0.00956974 -2.19178e-05 0.00964266 1.69815e-07 272.678 
-0.31 -0.11 -1.52946 3.00787 0.00969997 0.00951882 -1.36983e-05 0.0096177 1.69446e-07 272.566 