ITEM: TIMESTEP
867000
ITEM: NUMBER OF CELLS
2500
ITEM: BOX BOUNDS ss ss pp
-0.5 0.5
-0.5 0.5
-0.5 0.5
ITEM: CELLS xc yc f_U[*] f_V[*] f_Tau[1] f_Tau[2] f_Tau[3] f_Press[*] f_Mrho[*] f_Ttra[*] 
-0.49 -0.49 0.0593937 0.0313945 0.00967199 0.00955611 5.63003e-07 0.00960632 1.69448e-07 272.239 
-0.47 -0.49 -0.155633 0.163519 0.00964992 0.00956051 -4.82953e-06 0.00961412 1.69179e-07 272.893 
-0.45 -0.49 -0.537741 0.280781 0.00965772 0.00955263 1.2855e-06 0.00961718 1.69299e-07 272.787 
-0.49 -0.47 -0.169702 0.131087 0.00964571 0.00954622 5.0722e-06 0.00959668 1.69221e-07 272.331 
-0.43 -0.49 -0.838999 0.000595507 0.00965853 0.00955847 -4.4493e-06 0.00961314 1.69499e-07 272.351 
-0.47 -0.47 -0.306568 0.432803 0.00966358 0.00956927 3.79907e-06 0.00961969 1.69338e-07 272.795 
-0.41 -0.49 -0.787167 0.101601 0.00967109 0.00954769 -8.78289e-06 0.00961368 1.69345e-07 272.614 
-0.45 -0.47 -0.400184 0.384897 0.00966749 0.00955365 -1.51314e-05 0.00962033 1.69419e-07 272.682 
-0.49 -0.45 0.04708 0.334134 0.00967764 0.00953962 -2.8048e-05 0.00960796 1.69277e-07 272.561 
-0.39 -0.49 -0.884383 -0.186638 0.00968698 0.00961254 1.35986e-05 0.0096519 1.69844e-07 272.894 
-0.43 -0.47 -0.328453 0.0527703 0.00967944 0.00956382 -1.00681e-05 0.00962173 1.69394e-07 272.763 
-0.47 -0.45 -0.149565 0.635027 0.00969519 0.00956558 -7.96377e-06 0.00963507 1.69575e-07 272.849 
-0.37 -0.49 -0.717541 0.0710387 0.0096753 0.00958178 1.97092e-05 0.00962797 1.69513e-07 272.749 
-0.41 -0.47 -0.572871 0.0351886 0.00967739 0.00954167 -3.83494e-06 0.00962171 1.69405e-07 272.744 
-0.45 -0.45 -0.271131 0.343462 0.00968141 0.00956331 -1.15362e-05 0.00963386 1.6948e-07 272.968 
-0.49 -0.43 -0.172396 0.457277 0.00969782 0.00955335 -1.02772e-05 0.00962574 1.69575e-07 272.586 
-0.35 -0.49 -0.778547 0.0877266 0.0096797 0.0095729 5.81053e-06 0.00961852 1.69149e-07 273.067 
-0.39 -0.47 -0.432945 0.078503 0.00968114 0.00959528 -1.75233e-06 0.00963306 1.69716e-07 272.567 
-0.43 -0.45 -0.374708 0.196371 0.00969054 0.00955264 -1.49191e-05 0.00962318 1.69529e-07 272.586 
-0.47 -0.43 -0.089563 0.527297 0.00968685 0.00955257 -2.58977e-05 0.00962874 1.69597e-07 272.634 
-0.37 -0.47 -0.626358 0.0622483 0.00970134 0.00957558 9.7902e-06 0.0096437 1.69894e-07 272.581 
-0.41 -0.45 -0.446186 0.0566524 0.00970322 0.00955389 -6.08268e-06 0.00963444 1.69646e-07 272.718 
-0.45 -0.43 0.0349423 0.434736 0.00971628 0.00957997 -6.92779e-06 0.00965822 1.7004e-07 272.757 
-0.49 -0.41 0.0741773 0.557609 0.00969915 0.00957429 -7.00263e-06 0.00964181 1.69826e-07 272.637 
-0.35 -0.47 -0.859002 -0.00277107 0.00970784 0.00958898 1.08688e-05 0.00965391 1.69912e-07 272.841 
-0.39 -0.45 -0.478758 -0.0996717 0.00969865 0.00957598 -5.29594e-06 0.00963485 1.69765e-07 272.538 
-0.43 -0.43 -0.191982 0.460348 0.00969835 0.00954287 -7.95396e-06 0.00961849 1.69542e-07 272.433 
-0.47 -0.41 -0.10953 0.602541 0.00970891 0.00956035 -2.42647e-05 0.00964796 1.69815e-07 272.828 
-0.37 -0.45 -0.632585 0.397525 0.00969781 0.00957286 4.57307e-06 0.00963568 1.69711e-07 272.648 
-0.41 -0.43 -0.326309 0.0492997 0.00968688 0.00955067 -1.45579e-05 0.00962069 1.69249e-07 272.967 
-0.45 -0.41 -0.303259 0.522704 0.00969631 0.00954811 -8.91589e-06 0.00963224 1.69824e-07 272.369 
-0.49 -0.39 -0.215359 0.75736 0.00971914 0.00957593 -1.91779e-05 0.00965835 1.6998e-07 272.858 
-0.35 -0.45 -0.784084 0.0480741 0.00969611 0.00957442 7.31017e-06 0.00964447 1.69905e-07 272.585 
-0.39 -0.43 -0.98486 0.450012 0.00969046 0.00955412 -1.42641e-06 0.00961498 1.69599e-07 272.242 
-0.43 -0.41 -0.383345 0.480919 0.00969957 0.00956398 -1.50941e-06 0.0096282 1.69536e-07 272.717 
-0.47 -0.39 -0.305575 0.5207 0.00970434 0.00955044 -1.25119e-05 0.00963256 1.69847e-07 272.342 
-0.37 -0.43 -1.25111 0.394468 0.00969905 0.00957662 -1.68314e-07 0.00963731 1.69734e-07 272.657 
-0.41 -0.41 -0.431696 0.618962 0.00970346 0.00954378 -1.42698e-05 0.00962492 1.69658e-07 272.428 
-0.45 -0.39 -0.247858 0.976891 0.00969912 0.00954651 -1.68986e-05 0.00963307 1.69725e-07 272.552 
-0.35 -0.43 -0.969446 0.255517 0.00971774 0.0095808 -4.58055e-06 0.00965138 1.69652e-07 273.187 
-0.39 -0.41 -0.560369 0.523093 0.00970485 0.00954541 -1.8696e-05 0.00962924 1.69533e-07 272.752 
-0.43 -0.39 -0.466239 0.500385 0.00972565 0.00956181 -1.97901e-05 0.00964073 1.69617e-07 272.942 
-0.37 -0.41 -0.633839 0.594203 0.00972703 0.0095845 -1.6181e-05 0.0096619 1.70071e-07 272.812 
-0.41 -0.39 -0.685145 0.632851 0.0097339 0.0095495 -9.30053e-06 0.00964975 1.7004e-07 272.518 
-0.35 -0.41 -0.961451 0.320968 0.00972037 0.00956318 5.88906e-06 0.00965651 1.69873e-07 272.977 
-0.39 -0.39 -0.626981 0.66876 0.00972677 0.00956133 -9.95993e-06 0.00965354 1.69813e-07 272.99 
-0.37 -0.39 -1.0193 0.828242 0.00969683 0.00956269 -1.47561e-05 0.00964501 1.7008e-07 272.32 
-0.41 -0.37 -0.585577 0.539494 0.00971163 0.00955868 -1.41864e-05 0.00964669 1.69826e-07 272.775 
-0.35 -0.39 -1.10483 0.600254 0.00969357 0.00954733 -1.55184e-06 0.0096364 1.69752e-07 272.603 
-0.33 -0.39 -1.26918 0.649551 0.0097306 0.00957579 1.4902e-06 0.00965289 1.69916e-07 272.806 
-0.33 -0.49 -0.898649 -0.0664562 0.00969133 0.00957888 1.0565e-05 0.00964155 1.69562e-07 273.054 
-0.33 -0.47 -0.743518 0.0693067 0.00969426 0.00958372 3.40499e-06 0.0096561 1.69916e-07 272.897 
-0.33 -0.43 -1.21991 0.348346 0.00970458 0.00957166 1.30086e-05 0.00964501 1.69727e-07 272.886 
-0.49 -0.37 -0.269616 1.15937 0.00970791 0.00958236 -9.52137e-06 0.0096551 1.69818e-07 273.026 
-0.47 -0.37 -0.415291 0.489777 0.00971534 0.00955534 -7.6055e-06 0.00964274 1.69578e-07 273.062 
-0.45 -0.37 -0.659477 0.819853 0.00971932 0.00956222 -2.94284e-05 0.0096421 1.6958e-07 273.04 
-0.49 -0.35 0.17048 1.22901 0.00972236 0.00957202 -1.85394e-05 0.00965459 1.69837e-07 272.981 
-0.43 -0.37 -0.5807 0.730163 0.00971526 0.00953791 -2.43703e-05 0.00963914 1.69572e-07 272.97 
-0.47 -0.35 0.180909 0.641254 0.00972407 0.00956296 -2.16371e-05 0.00964425 1.69621e-07 273.035 
-0.45 -0.35 -0.0751576 0.981334 0.00972606 0.00956961 -2.35762e-05 0.00965354 1.70052e-07 272.607 
-0.49 -0.33 0.148302 0.841675 0.0096864 0.00956568 -2.82117e-05 0.0096303 1.69343e-07 273.089 
-0.39 -0.37 -0.711695 1.00786 0.0097166 0.00955511 -1.16243e-05 0.00964723 1.69756e-07 272.903 
-0.43 -0.35 -0.33242 0.898651 0.00970946 0.00954155 -1.43658e-05 0.00963564 1.69677e-07 272.701 
-0.47 -0.33 0.0193412 1.17687 0.00969681 0.00956005 -2.31975e-05 0.00964165 1.69575e-07 273.036 
-0.37 -0.37 -0.73042 0.895079 0.00972283 0.00956376 -2.54316e-06 0.0096488 1.69807e-07 272.866 
-0.41 -0.35 -0.797805 0.680469 0.00971509 0.00954729 -2.2043e-05 0.00965297 1.69944e-07 272.762 
-0.45 -0.33 -0.196269 1.26412 0.00969924 0.00956534 -1.40283e-05 0.00964247 1.69784e-07 272.723 
-0.49 -0.31 -0.204223 0.911734 0.00971037 0.00957492 -2.07559e-05 0.00964855 1.69854e-07 272.783 
-0.39 -0.35 -1.10136 1.06071 0.00971611 0.00955135 -1.5712e-05 0.00965574 1.70048e-07 272.675 
-0.43 -0.33 -0.435034 0.992404 0.00970454 0.00955403 -1.9764e-05 0.00964072 1.69741e-07 272.743 
-0.47 -0.31 -0.453771 1.42422 0.00970775 0.00956308 -2.00722e-05 0.00965067 1.69975e-07 272.648 
-0.37 -0.35 -0.828921 0.81044 0.00972346 0.00955471 -3.53529e-06 0.00965066 1.69843e-07 272.861 
-0.41 -0.33 -0.721366 1.23861 0.00970627 0.00953711 -2.12137e-05 0.00962895 1.69687e-07 272.496 
-0.45 -0.31 -0.456464 1.28917 0.00970943 0.0095646 -2.71138e-05 0.00964456 1.69733e-07 272.864 
-0.49 -0.29 -0.0837332 1.40826 0.00971916 0.00956837 -2.8758e-05 0.0096478 1.69885e-07 272.711 
-0.35 -0.35 -0.996764 1.15791 0.00972657 0.00956019 -1.01438e-05 0.00964149 1.69831e-07 272.62 
-0.39 -0.33 -0.936583 0.953164 0.00972361 0.00956149 -1.64557e-05 0.00965663 1.70133e-07 272.564 
-0.43 -0.31 -0.158976 1.20038 0.00973223 0.00956316 -3.27727e-05 0.00965618 1.7016e-07 272.507 
-0.47 -0.29 -0.094364 1.38474 0.00973413 0.00956272 -3.06571e-05 0.00965967 1.69958e-07 272.93 
-0.37 -0.33 -0.93849 0.894722 0.00971878 0.00953869 -2.07334e-05 0.00964643 1.69864e-07 272.706 
-0.41 -0.31 -0.475971 1.63331 0.0097316 0.00953654 -1.85341e-05 0.00964563 1.70337e-07 271.927 
-0.45 -0.29 -0.138757 1.16505 0.0097374 0.00956931 -2.60073e-05 0.00966847 1.69916e-07 273.245 
-0.35 -0.33 -1.06117 1.40431 0.00972646 0.00957176 -9.04894e-06 0.00965989 1.69974e-07 272.911 
-0.39 -0.31 -0.614673 1.16606 0.00971512 0.00954645 -2.372e-05 0.00965167 1.7e-07 272.636 
-0.43 -0.29 -0.26014 1.1243 0.00971677 0.00955283 -2.84447e-05 0.00965203 1.70134e-07 272.432 
-0.47 -0.27 -0.194995 1.27436 0.00969702 0.0095632 -3.48532e-05 0.0096375 1.69557e-07 272.947 
-0.33 -0.33 -1.17599 1.26476 0.00971431 0.00953744 -3.13763e-06 0.00963505 1.69838e-07 272.427 
-0.37 -0.31 -1.24608 1.02755 0.00970555 0.0095439 -1.21853e-05 0.00964034 1.69741e-07 272.733 
-0.41 -0.29 -0.173742 1.6006 0.0097193 0.00953893 -2.95282e-05 0.00965105 1.69995e-07 272.626 
-0.45 -0.27 0.106423 1.32971 0.00971025 0.00956164 -3.36437e-05 0.00964897 1.70091e-07 272.414 
-0.35 -0.31 -1.45865 1.58604 0.00971454 0.00955175 -1.01272e-05 0.00964848 1.70059e-07 272.451 
-0.39 -0.29 -0.373781 1.7725 0.00973013 0.00953607 -1.36782e-05 0.00964415 1.70089e-07 272.281 
-0.43 -0.27 -0.261484 1.53794 0.00971566 0.00956376 -2.14911e-05 0.00964464 1.70079e-07 272.312 
-0.37 -0.29 -0.812877 1.48083 0.00973605 0.00954862 -1.50465e-05 0.00964985 1.6989e-07 272.761 
-0.41 -0.27 -0.556786 1.72038 0.00970491 0.00953063 -2.6853e-05 0.00963217 1.6983e-07 272.358 
-0.35 -0.29 -0.713116 1.3527 0.00971389 0.00953723 -8.21286e-06 0.00963402 1.6964e-07 272.716 
-0.39 -0.27 -0.503513 1.79171 0.00969938 0.00952843 -1.15344e-05 0.00962178 1.69494e-07 272.604 
-0.33 -0.29 -0.96877 1.25843 0.00971957 0.00953775 -6.89997e-06 0.00963717 1.69854e-07 272.46 
-0.37 -0.27 -0.551149 1.63566 0.00970271 0.00954142 -8.62484e-06 0.00962694 1.69608e-07 272.567 
-0.35 -0.27 -0.864306 1.48292 0.00971352 0.00953593 -5.14484e-06 0.00962826 1.69862e-07 272.196 
-0.33 -0.27 -1.22824 1.61959 0.00971465 0.00954391 -4.28822e-06 0.00963227 1.69759e-07 272.475 
-0.35 -0.37 -1.02171 0.806983 0.00971714 0.00954762 -1.55224e-05 0.00963576 1.69689e-07 272.685 
-0.33 -0.37 -1.31704 0.938223 0.00971768 0.00956691 -1.01278e-05 0.00964388 1.69951e-07 272.495 
-0.33 -0.35 -1.35593 1.15722 0.00972515 0.00955489 -1.90314e-05 0.00964488 1.69808e-07 272.753 
-0.33 -0.31 -1.04745 1.10975 0.00971283 0.00952884 3.91691e-06 0.00963641 1.69926e-07 272.324 
-0.31 -0.49 -0.803728 -0.184793 0.00970233 0.00961386 1.58662e-06 0.00966549 1.70032e-07 272.976 
-0.29 -0.49 -0.890763 0.22128 0.00969166 0.009608 4.13822e-05 0.00965497 1.69972e-07 272.774 
-0.27 -0.49 -1.03859 -0.0296616 0.0096749 0.00958817 3.14775e-05 0.00964461 1.69943e-07 272.528 
-0.31 -0.47 -1.01009 0.0158236 0.00968366 0.00958065 1.08597e-05 0.00964272 1.69812e-07 272.684 
-0.29 -0.47 -1.08638 0.264636 0.00969825 0.00960021 3.8001e-05 0.00966035 1.69961e-07 272.944 
-0.27 -0.47 -1.04322 -0.0903107 0.00971164 0.00960397 2.92718e-05 0.00965376 1.70076e-07 272.573 
-0.31 -0.45 -1.24608 0.203909 0.0097046 0.00957737 2.02955e-05 0.00964596 1.70119e-07 272.285 
-0.29 -0.45 -1.34466 0.134543 0.00970534 0.009586 1.46732e-05 0.00965574 1.70056e-07 272.662 
-0.27 -0.45 -1.23613 0.076785 0.00973674 0.00961572 1.14804e-05 0.00967253 1.70241e-07 272.838 
-0.31 -0.43 -1.17871 0.367991 0.00971615 0.00957538 9.09067e-06 0.00965572 1.70109e-07 272.576 
-0.29 -0.43 -1.07265 0.0216356 0.00972978 0.00959271 5.75864e-06 0.00966261 1.70136e-07 272.728 
-0.27 -0.43 -1.367 0.171506 0.00972211 0.00960508 8.72786e-06 0.0096692 1.70324e-07 272.612 
-0.31 -0.41 -1.14243 0.186429 0.00971044 0.00957689 1.41429e-06 0.00965267 1.69968e-07 272.716 
-0.25 -0.43 -1.66223 0.0355966 0.00972859 0.0096022 2.47573e-05 0.00967186 1.70467e-07 272.458 
-0.29 -0.41 -1.36253 0.274113 0.00971072 0.00959268 -8.48336e-06 0.00966336 1.70061e-07 272.868 
-0.27 -0.41 -1.73956 0.272482 0.00970657 0.00958852 9.90027e-06 0.00965123 1.69983e-07 272.651 
-0.31 -0.39 -1.33759 0.290228 0.00974113 0.00958535 9.64983e-07 0.00966436 1.70091e-07 272.848 
-0.25 -0.41 -1.90335 0.622603 0.00971062 0.00959514 2.32229e-05 0.00966688 1.70194e-07 272.755 
-0.29 -0.39 -1.57317 0.656666 0.00973828 0.00959104 1.10993e-05 0.00966278 1.70352e-07 272.387 
-0.27 -0.39 -1.70631 0.381207 0.00973523 0.00957106 8.60562e-06 0.00966293 1.70119e-07 272.764 
-0.31 -0.37 -1.44418 0.370974 0.00972058 0.00957583 2.53363e-06 0.00965643 1.70142e-07 272.543 
-0.25 -0.39 -1.7322 0.648163 0.00973166 0.00959917 1.18051e-05 0.00967815 1.703e-07 272.902 
-0.29 -0.37 -1.54261 0.899849 0.00971685 0.00958552 8.17607e-06 0.00965358 1.69806e-07 273.002 
-0.27 -0.37 -1.7179 0.563805 0.00972466 0.00957815 1.36443e-05 0.00965444 1.7006e-07 272.618 
-0.31 -0.35 -1.65649 0.842968 0.00972299 0.00956086 -5.16066e-06 0.00964688 1.70031e-07 272.452 
-0.29 -0.35 -1.94601 0.630175 0.00972569 0.00958637 9.6809e-06 0.00966879 1.70163e-07 272.858 
-0.27 -0.35 -1.6184 0.645807 0.00972301 0.00958705 4.80241e-06 0.00966211 1.7019e-07 272.627 
-0.31 -0.33 -1.26704 1.16014 0.00970426 0.00955579 1.03962e-05 0.00964598 1.69988e-07 272.495 
-0.29 -0.33 -1.21651 0.639862 0.00970967 0.00957756 6.56699e-07 0.00965725 1.70133e-07 272.581 
-0.27 -0.33 -1.74132 0.924305 0.00971015 0.00958502 1.262e-05 0.00965851 1.69935e-07 272.935 
-0.31 -0.31 -0.990734 1.12827 0.00972258 0.00955972 1.93586e-07 0.00965361 1.70195e-07 272.379 
-0.29 -0.31 -1.43217 1.08361 0.0097301 0.00957847 6.20971e-07 0.00966143 1.70124e-07 272.713 
-0.27 -0.31 -1.60794 1.18857 0.00972227 0.00957126 5.05524e-06 0.00965814 1.70325e-07 272.298 
-0.31 -0.29 -1.33644 1.44088 0.00971969 0.00955466 -9.05203e-06 0.00964229 1.69974e-07 272.412 
-0.25 -0.31 -1.69183 1.09171 0.00973181 0.00957795 2.08889e-05 0.009661 1.70237e-07 272.52 
-0.29 -0.29 -1.57618 1.41394 0.00972144 0.00956901 5.98778e-06 0.00964892 1.69998e-07 272.562 
-0.27 -0.29 -1.89824 1.34288 0.00972304 0.00956879 1.79769e-05 0.00965251 1.70138e-07 272.439 
-0.31 -0.27 -1.44377 1.75482 0.00971285 0.00954906 1.79005e-08 0.00963044 1.69812e-07 272.338 
-0.25 -0.29 -1.91315 0.983374 0.00972315 0.00957661 5.88104e-06 0.0096541 1.70087e-07 272.565 
-0.29 -0.27 -1.25949 1.61351 0.00970878 0.00955514 6.55113e-07 0.00964508 1.69972e-07 272.496 
-0.27 -0.27 -1.39386 1.24386 0.00972399 0.00956792 -1.44944e-06 0.00965369 1.69809e-07 273 
-0.25 -0.27 -1.52529 1.3167 0.00973288 0.00957884 4.2463e-06 0.00965182 1.70007e-07 272.63 
-0.33 -0.45 -1.06102 0.367548 0.00971041 0.00958802 3.7146e-06 0.00965848 1.70139e-07 272.605 
-0.33 -0.41 -1.0084 0.65639 0.00971562 0.00957055 1.87821e-05 0.00964769 1.70066e-07 272.417 
-0.25 -0.49 -1.08514 -0.0528744 0.00968663 0.00961077 3.19078e-05 0.00965374 1.69928e-07 272.811 
-0.23 -0.49 -1.10941 0.242206 0.0097051 0.00960355 3.08079e-05 0.00965484 1.69803e-07 273.042 
-0.25 -0.47 -1.12146 0.108437 0.00971718 0.00961015 1.25335e-05 0.00965882 1.70063e-07 272.737 
-0.23 -0.47 -1.23815 0.352853 0.0097235 0.00961965 1.17375e-05 0.00967484 1.70228e-07 272.925 
-0.25 -0.45 -1.0956 0.0491502 0.0097356 0.00961218 2.03567e-05 0.00967849 1.70271e-07 272.959 
-0.23 -0.45 -1.42292 0.647442 0.00972518 0.00960537 2.29496e-05 0.00967511 1.70125e-07 273.097 
-0.25 -0.37 -1.6807 0.324076 0.00972652 0.00958563 1.12416e-05 0.00966416 1.70125e-07 272.789 
-0.25 -0.35 -1.93702 0.590852 0.00972169 0.0095674 1.0203e-05 0.00965712 1.69936e-07 272.893 
-0.25 -0.33 -2.06445 0.851258 0.00970812 0.00957316 1.01073e-05 0.00965425 1.69938e-07 272.808 
-0.49 -0.25 -0.113708 1.51978 0.00968815 0.00955272 -4.51129e-05 0.00962817 1.69662e-07 272.514 
-0.47 -0.25 -0.194949 1.58996 0.00970163 0.00956293 -4.54406e-05 0.00963707 1.69897e-07 272.39 
-0.45 -0.25 -0.406499 1.30478 0.00970425 0.0095404 -3.86558e-05 0.00964331 1.69943e-07 272.492 
-0.49 -0.23 0.060012 1.8424 0.0096829 0.0095557 -5.47347e-05 0.009622 1.69578e-07 272.475 
-0.47 -0.23 -0.147733 1.49645 0.00968319 0.00955189 -5.08607e-05 0.00963625 1.69915e-07 272.337 
-0.45 -0.23 -0.664153 1.70147 0.00968558 0.00952951 -3.10311e-05 0.00962661 1.69766e-07 272.303 
-0.49 -0.21 -0.063017 1.71993 0.00968974 0.00956941 -5.93902e-05 0.00964586 1.70022e-07 272.437 
-0.43 -0.23 -0.652854 1.75119 0.00969408 0.00954119 -3.83245e-05 0.00962588 1.69543e-07 272.641 
-0.47 -0.21 -0.160837 1.92197 0.00969616 0.00953865 -4.99496e-05 0.0096418 1.70076e-07 272.235 
-0.41 -0.23 -0.653868 2.05416 0.00970411 0.00952321 -2.5829e-05 0.00962946 1.69785e-07 272.354 
-0.45 -0.21 -0.193086 2.03615 0.00970119 0.00952749 -5.14677e-05 0.00961555 1.69753e-07 272.012 
-0.49 -0.19 -0.104793 2.00767 0.00969664 0.00955037 -6.95847e-05 0.00963215 1.69819e-07 272.375 
-0.39 -0.23 -0.779725 1.6716 0.00971024 0.00954357 -2.92586e-05 0.00963153 1.69695e-07 272.557 
-0.43 -0.21 -0.505287 1.79495 0.00971092 0.00952918 -3.01053e-05 0.00962674 1.69695e-07 272.42 
-0.47 -0.19 -0.115435 1.81769 0.00969657 0.00953395 -5.6384e-05 0.00963687 1.69996e-07 272.225 
-0.41 -0.21 -0.585482 1.98417 0.00970567 0.0095296 -3.17458e-05 0.00962392 1.69802e-07 272.17 
-0.45 -0.19 -0.210399 2.10367 0.00970404 0.00953009 -4.85915e-05 0.00962294 1.69576e-07 272.504 
-0.49 -0.17 -0.204835 2.13684 0.00968792 0.00953023 -6.55771e-05 0.009615 1.6962e-07 272.209 
-0.39 -0.21 -0.767175 2.05649 0.00971194 0.00953383 -3.52546e-05 0.00963009 1.69853e-07 272.262 
-0.43 -0.19 -0.448561 1.9851 0.00970337 0.00950958 -4.6684e-05 0.00961236 1.69465e-07 272.383 
-0.47 -0.17 -0.321961 1.96435 0.00969075 0.00953353 -6.15915e-05 0.00962606 1.69896e-07 272.079 
-0.41 -0.19 -0.533546 2.33731 0.00972026 0.00953291 -3.64377e-05 0.00963787 1.69688e-07 272.747 
-0.45 -0.17 -0.284266 2.27215 0.00969763 0.00951863 -5.8146e-05 0.00962345 1.69696e-07 272.326 
-0.49 -0.15 0.118118 2.40739 0.00969143 0.0095083 -6.80745e-05 0.00961783 1.6973e-07 272.112 
-0.39 -0.19 -1.0504 2.36247 0.00972932 0.00952031 -3.17625e-05 0.00962478 1.69669e-07 272.406 
-0.43 -0.17 -0.47663 2.1503 0.00970794 0.00950375 -4.54379e-05 0.00962535 1.6979e-07 272.23 
-0.47 -0.15 -0.117358 1.95077 0.00968618 0.00952874 -5.59279e-05 0.00962472 1.69716e-07 272.33 
-0.41 -0.17 -0.940565 2.59422 0.00971221 0.00952834 -3.8917e-05 0.00962766 1.6969e-07 272.455 
-0.45 -0.15 -0.363556 2.406 0.00968281 0.00951774 -5.36364e-05 0.00960833 1.69522e-07 272.178 
-0.39 -0.17 -1.01123 2.64228 0.00969052 0.00950693 -3.29849e-05 0.00961288 1.69294e-07 272.674 
-0.43 -0.15 -0.597869 2.61572 0.0096888 0.00948693 -5.69405e-05 0.00959919 1.69279e-07 272.309 
-0.41 -0.15 -0.71677 2.57428 0.00968779 0.00951561 -2.88618e-05 0.00961508 1.6957e-07 272.292 
-0.39 -0.15 -0.921035 3.09974 0.00968681 0.00951311 -2.83779e-05 0.00960221 1.69352e-07 272.278 
-0.49 -0.27 -0.0626623 1.5231 0.0096973 0.00955515 -4.37349e-05 0.00963123 1.69728e-07 272.496 
-0.43 -0.25 -0.449049 1.78145 0.00970773 0.0095572 -1.76065e-05 0.00964167 1.6978e-07 272.707 
-0.41 -0.25 -0.461491 1.90293 0.00970805 0.00952162 -1.38256e-05 0.00962268 1.69743e-07 272.229 
-0.39 -0.25 -0.7572 1.33978 0.00971422 0.00953125 -2.2024e-05 0.00962947 1.69582e-07 272.68 
-0.33 -0.25 -1.35805 1.93604 0.00971784 0.00954384 -7.02264e-06 0.00963845 1.69892e-07 272.437 
-0.37 -0.25 -0.571442 2.27541 0.00972901 0.00953349 -2.18287e-05 0.00963634 1.69926e-07 272.321 
-0.35 -0.25 -1.10289 1.82073 0.00972213 0.00952844 -3.11831e-06 0.00963603 1.69856e-07 272.425 
-0.37 -0.23 -0.991708 2.13972 0.00970706 0.00951587 -2.32797e-05 0.00962424 1.6948e-07 272.695 
-0.35 -0.23 -0.709885 2.07257 0.00972822 0.00951677 -8.39679e-06 0.00962776 1.6983e-07 272.234 
-0.37 -0.21 -1.09947 2.06258 0.00971688 0.00951235 -2.3675e-05 0.00962345 1.6939e-07 272.818 
-0.35 -0.21 -1.16962 2.23251 0.00972095 0.00951477 -3.39426e-05 0.00962685 1.69389e-07 272.917 
-0.37 -0.19 -1.24155 2.22071 0.00972055 0.00950834 -2.44456e-05 0.0096077 1.69387e-07 272.377 
-0.35 -0.19 -1.24825 2.14938 0.00971179 0.00951624 -2.23545e-05 0.00960458 1.6954e-07 272.043 
-0.37 -0.17 -1.26456 2.2728 0.00970386 0.0095085 -1.65135e-05 0.00961519 1.69432e-07 272.517 
-0.35 -0.17 -1.37603 2.20319 0.00969586 0.00950523 -1.57283e-05 0.00960381 1.69532e-07 272.033 
-0.33 -0.17 -1.51885 2.36233 0.00969203 0.0095225 -1.5422e-05 0.00961874 1.69884e-07 271.892 
-0.37 -0.15 -1.03016 2.34925 0.00967579 0.00948581 -2.62333e-05 0.00959427 1.69362e-07 272.036 
-0.35 -0.15 -1.13256 2.38365 0.00969001 0.00952114 -1.81353e-05 0.00960744 1.69619e-07 271.997 
-0.33 -0.15 -1.41621 2.45491 0.00970733 0.00952212 -2.54441e-05 0.0096278 1.6958e-07 272.635 
-0.37 -0.13 -1.18347 2.67352 0.00970761 0.00948511 -3.70443e-05 0.00959464 1.69237e-07 272.248 
-0.35 -0.13 -1.17707 2.36323 0.00972357 0.00951879 -3.21432e-05 0.00961732 1.69507e-07 272.456 
-0.33 -0.13 -1.14998 2.98251 0.00971126 0.00952316 -2.47915e-05 0.00962158 1.693e-07 272.909 
-0.37 -0.11 -1.0218 2.96489 0.00969121 0.0094828 -4.92106e-05 0.00958889 1.68868e-07 272.679 
-0.35 -0.11 -1.24563 2.4523 0.00968794 0.00950152 -3.72107e-05 0.00959729 1.69104e-07 272.537 
-0.33 -0.11 -1.55331 3.15628 0.00969256 0.0095039 -8.88276e-06 0.00961376 1.69291e-07 272.703 
-0.35 -0.09 -1.00707 2.8331 0.00965158 0.00949544 -3.06852e-05 0.00957026 1.68881e-07 272.129 
-0.49 -0.13 0.0731796 2.18904 0.00966465 0.00952139 -7.77893e-05 0.00960642 1.69368e-07 272.371 
-0.47 -0.13 -0.0846388 2.51486 0.00967774 0.0095107 -6.60008e-05 0.00960355 1.69742e-07 271.69 
-0.45 -0.13 -0.562122 2.46219 0.00969315 0.00952313 -5.51518e-05 0.00961361 1.69372e-07 272.569 
-0.49 -0.11 -0.0172013 2.33434 0.00965917 0.00951065 -8.18556e-05 0.00958593 1.6908e-07 272.253 
-0.43 -0.13 -0.581438 2.85803 0.00968749 0.00949227 -4.9677e-05 0.00960108 1.69508e-07 271.994 
-0.47 -0.11 -0.209194 2.72993 0.00966017 0.00950912 -7.52174e-05 0.00957645 1.69064e-07 272.01 
-0.41 -0.13 -0.928385 2.88555 0.00967851 0.00949058 -4.56761e-05 0.00959547 1.69226e-07 272.289 
-0.45 -0.11 -0.582157 2.76922 0.00965708 0.0095088 -6.12564e-05 0.00960849 1.69426e-07 272.337 
-0.49 -0.09 -0.113535 2.53244 0.00964326 0.00950697 -7.26881e-05 0.0095841 1.69336e-07 271.788 
-0.39 -0.13 -0.964805 3.18019 0.00968871 0.00950956 -3.03701e-05 0.00959678 1.69091e-07 272.543 
-0.43 -0.11 -0.982689 3.20009 0.00965305 0.00948091 -5.00584e-05 0.00957599 1.68999e-07 272.101 
-0.47 -0.09 -0.462149 2.98571 0.0096527 0.00949876 -7.87604e-05 0.00958153 1.69104e-07 272.09 
-0.41 -0.11 -0.909776 2.79822 0.00967152 0.00948613 -5.16402e-05 0.00959283 1.69095e-07 272.424 
-0.45 -0.09 -0.469452 3.15963 0.00964713 0.00949026 -6.69817e-05 0.0095772 1.6891e-07 272.278 
-0.39 -0.11 -0.911894 3.27946 0.00969261 0.00951142 -4.86995e-05 0.009597 1.69163e-07 272.433 
-0.43 -0.09 -0.705566 3.22378 0.00966727 0.00948096 -6.20188e-05 0.0095809 1.69116e-07 272.051 
-0.41 -0.09 -0.787874 3.01726 0.00966582 0.00948897 -4.85993e-05 0.00958519 1.68896e-07 272.529 
-0.39 -0.09 -0.88992 3.18151 0.00966957 0.00950153 -5.7607e-05 0.00958047 1.68825e-07 272.509 
-0.37 -0.09 -0.830092 2.84901 0.00966089 0.00947285 -3.04341e-05 0.00956977 1.6884e-07 272.18 
-0.35 -0.03 -1.42847 3.32117 0.00965526 0.0094692 -4.32385e-05 0.00958676 1.6902e-07 272.374 
-0.37 -0.07 -1.14214 3.11333 0.00965156 0.00947331 -4.0471e-05 0.00957019 1.68706e-07 272.408 
-0.41 -0.05 -0.735602 3.76241 0.00963592 0.00948677 -5.32514e-05 0.00956798 1.68763e-07 272.254 
-0.45 -0.03 -0.401897 3.61779 0.00962596 0.00946164 -8.75039e-05 0.00956993 1.68952e-07 272.005 
-0.35 -0.07 -1.37728 3.10158 0.00967604 0.0094921 -3.73517e-05 0.00958943 1.68974e-07 272.523 
-0.39 -0.05 -1.06561 3.30354 0.00964577 0.00946421 -4.85867e-05 0.00956739 1.68814e-07 272.154 
-0.43 -0.03 -0.676337 3.71918 0.00963663 0.00944772 -7.38984e-05 0.00956348 1.68715e-07 272.202 
-0.33 -0.07 -1.55009 3.48394 0.00968699 0.00949475 -2.81954e-05 0.00958632 1.68949e-07 272.476 
-0.37 -0.05 -0.986812 3.13582 0.00965325 0.00947675 -4.95508e-05 0.00958803 1.68957e-07 272.51 
-0.41 -0.03 -0.839126 3.91043 0.00964098 0.00947004 -6.86144e-05 0.00956428 1.68537e-07 272.512 
-0.35 -0.05 -1.11704 3.31361 0.00965538 0.00948173 -4.91e-05 0.0095729 1.68677e-07 272.532 
-0.39 -0.03 -0.914017 3.57601 0.00964099 0.00945692 -5.90194e-05 0.00956266 1.68587e-07 272.386 
-0.33 -0.05 -1.24351 3.53829 0.00965708 0.00949286 -4.07837e-05 0.00958324 1.68932e-07 272.415 
-0.37 -0.03 -1.07641 3.4837 0.00965817 0.00948033 -5.81954e-05 0.00957841 1.68816e-07 272.464 
-0.33 -0.03 -1.70231 3.5851 0.00967122 0.00949964 -4.66425e-05 0.00959553 1.69146e-07 272.419 
-0.49 -0.07 -0.115489 2.8135 0.00962806 0.00951209 -8.80003e-05 0.00958649 1.68933e-07 272.505 
-0.47 -0.07 -0.0100831 2.87691 0.00964001 0.00948322 -8.8898e-05 0.00957893 1.69289e-07 271.718 
-0.45 -0.07 -0.230541 3.39657 0.00966475 0.00948606 -7.29969e-05 0.00958577 1.69025e-07 272.337 
-0.49 -0.05 -0.240039 3.07076 0.00963838 0.00950204 -9.72369e-05 0.00958346 1.6907e-07 272.199 
-0.43 -0.07 -0.187074 3.32271 0.00966345 0.00947051 -5.36725e-05 0.00957473 1.69106e-07 271.893 
-0.47 -0.05 -0.231442 2.97982 0.00962831 0.00948407 -8.73652e-05 0.00957173 1.68976e-07 272.016 
-0.41 -0.07 -0.675955 3.37199 0.00966712 0.00949773 -6.61594e-05 0.00959268 1.69157e-07 272.32 
-0.45 -0.05 -0.314513 3.35046 0.00961559 0.0094667 -7.91693e-05 0.00955955 1.68617e-07 272.25 
-0.49 -0.03 0.0680058 3.14711 0.00960122 0.00947927 -0.000102095 0.00955387 1.68586e-07 272.137 
-0.39 -0.07 -0.926502 3.13789 0.00964829 0.00947191 -4.18854e-05 0.00957199 1.6897e-07 272.034 
-0.43 -0.05 -0.634663 3.51002 0.0096272 0.00946383 -6.54963e-05 0.00956455 1.68827e-07 272.053 
-0.47 -0.03 -0.164446 3.23254 0.00960957 0.00948234 -8.62069e-05 0.0095621 1.68929e-07 271.819 
-0.27 -0.07 -1.6406 2.69771 0.00968266 0.0095542 -3.37501e-05 0.00962302 1.69613e-07 272.447 
-0.31 -0.05 -1.5268 3.5143 0.00967605 0.00952368 -4.30777e-05 0.00961116 1.6927e-07 272.663 
-0.27 -0.09 -1.98516 2.63916 0.00969402 0.0095529 -2.31284e-05 0.00962704 1.69822e-07 272.226 
-0.31 -0.07 -1.32192 3.14238 0.0096729 0.00952819 -3.26132e-05 0.0096081 1.69281e-07 272.559 
-0.29 -0.07 -1.99984 3.03365 0.00967661 0.00954346 -3.99115e-05 0.00962082 1.69541e-07 272.5 
-0.25 -0.07 -1.64889 2.6083 0.00967936 0.00957089 -1.76049e-05 0.00963009 1.69721e-07 272.474 
-0.29 -0.05 -1.58264 3.13282 0.00968655 0.00954478 -3.05991e-05 0.00962583 1.69534e-07 272.654 
-0.27 -0.05 -1.86199 2.65574 0.00968202 0.00953763 -3.54342e-05 0.0096274 1.69722e-07 272.395 
-0.31 -0.03 -1.66127 3.57372 0.00967417 0.00951978 -4.67126e-05 0.00961178 1.69423e-07 272.435 
-0.25 -0.05 -1.99587 2.75574 0.0096942 0.00956741 -3.41484e-05 0.00963012 1.6952e-07 272.798 
-0.29 -0.03 -1.56097 3.19868 0.00967787 0.00954664 -5.43549e-05 0.00962993 1.69647e-07 272.588 
-0.27 -0.03 -1.84937 2.94002 0.00969767 0.00953484 -4.0955e-05 0.00962956 1.69942e-07 272.105 
-0.25 -0.03 -2.07196 2.96156 0.00970282 0.00956736 -4.40598e-05 0.00963133 1.69727e-07 272.5 
-0.31 -0.25 -1.47264 1.53409 0.00971957 0.00954174 -4.64779e-06 0.00964233 1.69883e-07 272.56 
-0.29 -0.25 -1.51616 1.42619 0.00973359 0.00956629 -1.59392e-05 0.00964907 1.69762e-07 272.946 
-0.27 -0.25 -1.4185 1.63421 0.00974673 0.00955633 -6.99946e-06 0.00965638 1.70006e-07 272.759 
-0.29 -0.11 -1.70057 2.42578 0.00970661 0.00955534 -2.15793e-05 0.00962476 1.6957e-07 272.566 
-0.33 -0.09 -1.19254 3.46607 0.00964731 0.00948825 -3.80801e-05 0.00957802 1.68919e-07 272.287 
-0.27 -0.11 -1.81222 2.33175 0.00971333 0.0095539 -1.56882e-05 0.00964122 1.69913e-07 272.48 
-0.31 -0.09 -1.48864 2.97939 0.00966974 0.00952919 -2.37552e-05 0.00961658 1.69271e-07 272.815 
-0.29 -0.09 -1.57839 2.76144 0.00968804 0.00955526 -2.18438e-05 0.00963021 1.69465e-07 272.889 
-0.33 -0.23 -0.98754 2.04926 0.00974305 0.00955191 -5.14237e-06 0.00964728 1.70021e-07 272.479 
-0.31 -0.23 -1.30883 1.72376 0.00974868 0.00955296 -1.85785e-05 0.00964873 1.70154e-07 272.307 
-0.29 -0.23 -1.61834 1.75391 0.00975315 0.00956784 -1.57376e-05 0.00966564 1.70092e-07 272.883 
-0.33 -0.21 -1.10128 2.094 0.00972753 0.00953948 -1.92598e-05 0.00963147 1.69775e-07 272.426 
-0.27 -0.23 -1.87312 1.59308 0.00974243 0.00954596 -1.29829e-05 0.00964687 1.70094e-07 272.351 
-0.31 -0.21 -1.30789 2.26112 0.00973016 0.00956411 -8.67133e-06 0.00964871 1.69973e-07 272.597 
-0.29 -0.21 -1.71736 1.88089 0.00970787 0.00955148 -9.71884e-06 0.00964144 1.69801e-07 272.667 
-0.33 -0.19 -1.22289 2.15574 0.00970332 0.00952314 -1.69696e-05 0.00961749 1.69566e-07 272.367 
-0.27 -0.21 -2.02912 1.94075 0.00969737 0.00954873 3.39688e-06 0.00963329 1.69906e-07 272.268 
-0.31 -0.19 -1.39488 2.39039 0.00969738 0.009548 -1.16596e-05 0.009634 1.69753e-07 272.534 
-0.25 -0.21 -2.12101 1.74837 0.00969942 0.00956969 -3.43231e-06 0.00963046 1.69692e-07 272.532 
-0.29 -0.19 -1.50846 2.06695 0.00970217 0.00955368 6.54513e-06 0.00963569 1.69592e-07 272.84 
-0.27 -0.19 -1.68942 2.22411 0.0097127 0.00955791 -9.2334e-06 0.00963289 1.69831e-07 272.377 
-0.31 -0.17 -1.47417 2.33387 0.00970299 0.00954645 -1.38997e-05 0.00963721 1.69992e-07 272.241 
-0.25 -0.19 -1.87961 1.96363 0.0097154 0.00955515 -7.98092e-06 0.00964927 1.70087e-07 272.428 
-0.29 -0.17 -1.54766 2.36989 0.00972065 0.00954798 -5.51148e-06 0.0096439 1.69957e-07 272.485 
-0.27 -0.17 -1.59625 2.05665 0.00972548 0.00956625 -1.65412e-05 0.00965363 1.70121e-07 272.498 
-0.31 -0.15 -1.92403 2.53831 0.00971554 0.00954134 -1.74775e-05 0.00963278 1.69651e-07 272.662 
-0.25 -0.17 -1.62025 2.34826 0.00972484 0.00956271 -1.21998e-05 0.00965156 1.69875e-07 272.834 
-0.29 -0.15 -1.88019 2.30669 0.0097048 0.00953506 -2.21237e-05 0.00962559 1.69556e-07 272.612 
-0.27 -0.15 -1.95699 2.232 0.00970704 0.00957634 -6.25517e-06 0.00964628 1.69976e-07 272.523 
-0.31 -0.13 -1.425 2.75735 0.00969682 0.00952364 -1.27709e-05 0.00961654 1.6916e-07 272.992 
-0.25 -0.15 -1.72603 2.17389 0.00969706 0.00955765 -9.35195e-06 0.00964322 1.6981e-07 272.702 
-0.29 -0.13 -1.76683 2.37801 0.0096934 0.00953629 -1.09181e-05 0.00960852 1.69286e-07 272.562 
-0.27 -0.13 -1.75983 2.23512 0.00970278 0.00957448 -1.63398e-05 0.0096509 1.70016e-07 272.588 
-0.31 -0.11 -1.64762 2.95916 0.00970139 0.00952307 -1.19789e-05 0.0096164 1.69411e-07 272.584 