ITEM: TIMESTEP
822000
ITEM: NUMBER OF CELLS
2500
ITEM: BOX BOUNDS ss ss pp
-0.5 0.5
-0.5 0.5
-0.5 0.5
ITEM: CELLS xc yc f_U[*] f_V[*] f_Tau[1] f_Tau[2] f_Tau[3] f_Press[*] f_Mrho[*] f_Ttra[*] 
-0.49 -0.49 -0.130819 0.243315 0.00969301 0.00956488 2.57108e-05 0.00961348 1.70005e-07 271.549 
-0.47 -0.49 -0.223274 -0.0707221 0.00966875 0.00959534 1.52506e-06 0.00964975 1.69713e-07 273.043 
-0.45 -0.49 -0.527574 0.398679 0.00967635 0.00955288 1.00019e-05 0.00961785 1.69255e-07 272.877 
-0.49 -0.47 0.076479 0.36612 0.00966971 0.00956205 1.04947e-05 0.00962634 1.69949e-07 272.003 
-0.43 -0.49 -0.759208 0.162769 0.00964649 0.00954583 -2.23421e-05 0.00959782 1.69429e-07 272.029 
-0.47 -0.47 -0.3447 0.652099 0.00969795 0.00959746 8.82481e-06 0.00964332 1.69366e-07 273.42 
-0.41 -0.49 -0.916263 -0.190324 0.00966836 0.00955228 -1.51949e-05 0.00960825 1.69636e-07 271.993 
-0.45 -0.47 -0.790106 0.371474 0.00972698 0.00956148 -5.19286e-06 0.00963735 1.69374e-07 273.239 
-0.49 -0.45 0.0485218 0.335718 0.00969159 0.00955035 -4.37463e-05 0.00962438 1.6996e-07 271.93 
-0.39 -0.49 -1.35053 -0.208098 0.00969384 0.00962317 2.91636e-05 0.00967033 1.69896e-07 273.33 
-0.43 -0.47 -0.71006 -0.12219 0.00972264 0.00958276 -1.43712e-05 0.00964463 1.69575e-07 273.12 
-0.47 -0.45 -0.326878 1.02232 0.00973142 0.00959771 -5.02534e-06 0.00966601 1.69735e-07 273.468 
-0.37 -0.49 -0.711086 0.118605 0.00967574 0.00960701 2.17546e-05 0.00964669 1.69601e-07 273.137 
-0.41 -0.47 -1.04912 0.118374 0.00969205 0.00954089 -2.44371e-06 0.0096152 1.69648e-07 272.169 
-0.45 -0.45 -0.308033 0.366866 0.00969859 0.00955028 -3.86937e-07 0.00962131 1.69403e-07 272.736 
-0.49 -0.43 -0.0525591 0.338564 0.00970174 0.00956205 -1.11045e-05 0.00963727 1.69866e-07 272.444 
-0.35 -0.49 -0.84358 -0.00316281 0.0096792 0.00959649 -8.59484e-06 0.00961831 1.68935e-07 273.407 
-0.39 -0.47 -0.641776 0.0377507 0.00968215 0.00959839 -7.92771e-06 0.009639 1.69855e-07 272.511 
-0.43 -0.45 -0.995364 0.174944 0.009694 0.00956729 1.50277e-05 0.00963026 1.69547e-07 272.759 
-0.47 -0.43 0.0633735 0.792289 0.0096726 0.0095636 -2.59297e-05 0.00962868 1.69764e-07 272.364 
-0.37 -0.47 -0.815848 -0.324341 0.00970361 0.00958919 1.18954e-05 0.00965405 1.69756e-07 273.096 
-0.41 -0.45 -0.857663 0.0342504 0.00970621 0.00956553 1.08203e-05 0.00963245 1.69628e-07 272.691 
-0.45 -0.43 0.0202757 0.710728 0.00968662 0.0095391 1.32344e-05 0.00961706 1.69566e-07 272.354 
-0.49 -0.41 0.105368 0.613845 0.00965489 0.00957265 -3.59596e-06 0.00962821 1.69877e-07 272.171 
-0.35 -0.47 -0.860166 -0.297691 0.00969381 0.00961065 2.916e-05 0.00965008 1.6947e-07 273.444 
-0.39 -0.45 -0.845205 -0.523621 0.00968753 0.00958797 -5.73726e-06 0.00963423 1.70176e-07 271.862 
-0.43 -0.43 0.167951 0.39939 0.00970693 0.00956573 3.73695e-07 0.00962153 1.69283e-07 272.936 
-0.47 -0.41 0.191079 0.625621 0.00967021 0.00955378 -9.19316e-06 0.00963525 1.69919e-07 272.302 
-0.37 -0.45 -0.908552 0.239542 0.00969572 0.00956143 -9.49945e-07 0.0096206 1.69723e-07 272.202 
-0.41 -0.43 0.0171443 -0.109367 0.00969914 0.00955485 6.75926e-06 0.00962615 1.69692e-07 272.409 
-0.45 -0.41 -0.0703166 1.11104 0.0096885 0.00955025 -5.67245e-06 0.00962415 1.69985e-07 271.884 
-0.49 -0.39 -0.138422 0.817929 0.00972967 0.00959239 -9.69734e-06 0.00968376 1.70199e-07 273.223 
-0.35 -0.45 -0.883848 -0.179655 0.00970517 0.00960152 2.12857e-05 0.00966164 1.70108e-07 272.745 
-0.39 -0.43 -1.03936 0.321559 0.00971285 0.0095846 1.81181e-06 0.00964859 1.70321e-07 272.036 
-0.43 -0.41 -0.25888 0.0630744 0.0096763 0.00955358 -1.06211e-05 0.00961358 1.69481e-07 272.392 
-0.47 -0.39 -0.215607 0.490304 0.00968859 0.00955763 -1.613e-05 0.0096357 1.69868e-07 272.397 
-0.37 -0.43 -1.55065 -0.0477082 0.00970432 0.00955271 -1.07719e-07 0.00962388 1.69885e-07 272.036 
-0.41 -0.41 -0.386235 0.790628 0.00971137 0.00954504 -6.61281e-06 0.00963154 1.70044e-07 271.998 
-0.45 -0.39 0.144801 1.29304 0.00967576 0.00954371 -1.58021e-05 0.00963027 1.70215e-07 271.689 
-0.35 -0.43 -0.934911 -0.409501 0.00973025 0.00959763 -3.10236e-06 0.00966971 1.70016e-07 273.12 
-0.39 -0.41 -0.730013 0.712236 0.0097162 0.00958645 -1.32795e-05 0.00965707 1.7003e-07 272.741 
-0.43 -0.39 -0.344531 0.297556 0.00972998 0.00957078 -2.00601e-05 0.00964675 1.6982e-07 272.786 
-0.37 -0.41 -0.785305 -0.034776 0.00973052 0.00956739 -1.35808e-05 0.00964485 1.69883e-07 272.632 
-0.41 -0.39 -0.712541 0.929579 0.00971699 0.00953985 -2.40056e-05 0.00963286 1.69661e-07 272.649 
-0.35 -0.41 -1.39843 -0.396429 0.00970805 0.00955292 1.23861e-05 0.00963337 1.69658e-07 272.668 
-0.39 -0.39 -0.411905 0.542267 0.00972094 0.00959387 -1.47759e-06 0.00966646 1.70012e-07 273.035 
-0.37 -0.39 -0.934536 0.854312 0.00967541 0.00955521 4.89423e-06 0.00962854 1.69879e-07 272.177 
-0.41 -0.37 -0.582538 0.607536 0.00969049 0.00953528 -2.7097e-05 0.00962718 1.69589e-07 272.604 
-0.35 -0.39 -1.12843 -0.0236008 0.00967188 0.00955432 1.04694e-05 0.0096265 1.69828e-07 272.201 
-0.33 -0.39 -1.41387 0.0627088 0.00969003 0.00954132 1.16285e-05 0.00961446 1.69447e-07 272.472 
-0.33 -0.49 -0.629261 -0.211861 0.00967119 0.00958451 1.33887e-05 0.00962205 1.69128e-07 273.201 
-0.33 -0.47 -1.04581 0.285512 0.00967258 0.00959007 2.05003e-05 0.00964162 1.69628e-07 272.95 
-0.33 -0.43 -1.23757 -0.0551756 0.00971472 0.00956288 4.03853e-05 0.00966161 1.70029e-07 272.871 
-0.49 -0.37 -0.105966 1.04796 0.00969855 0.00960301 7.4894e-06 0.00964423 1.69455e-07 273.302 
-0.47 -0.37 -0.174693 0.217861 0.00970412 0.00956705 1.1717e-06 0.00963976 1.69173e-07 273.631 
-0.45 -0.37 -0.466431 1.28165 0.00971399 0.00958123 -3.43538e-05 0.00965586 1.69845e-07 273.003 
-0.49 -0.35 -0.107741 1.00676 0.00969912 0.00958385 -1.7453e-05 0.00964088 1.69417e-07 273.268 
-0.43 -0.37 -0.388345 1.13424 0.0096995 0.00956133 -3.26804e-05 0.00964338 1.70074e-07 272.283 
-0.47 -0.35 0.120256 0.431513 0.00971292 0.00959239 -8.9831e-06 0.00965155 1.69654e-07 273.188 
-0.45 -0.35 0.0244985 1.34113 0.00970265 0.00959129 -1.51664e-05 0.00964948 1.69848e-07 272.819 
-0.49 -0.33 0.155969 0.659228 0.0096724 0.00958189 -1.87293e-05 0.00963515 1.69268e-07 273.347 
-0.39 -0.37 -0.429614 0.831303 0.00967425 0.00955747 -3.61995e-06 0.00962883 1.69717e-07 272.445 
-0.43 -0.35 -0.00489826 1.25524 0.009686 0.00956765 -1.58514e-05 0.0096514 1.70038e-07 272.567 
-0.47 -0.33 -0.17625 0.797924 0.00968206 0.00958207 -1.64517e-05 0.00965255 1.69947e-07 272.746 
-0.37 -0.37 -0.582958 0.649647 0.00969847 0.00956355 2.6869e-06 0.00962938 1.6979e-07 272.343 
-0.41 -0.35 -0.237486 0.22118 0.00969009 0.00952429 -2.08247e-05 0.00961499 1.69805e-07 271.912 
-0.45 -0.33 0.111193 1.4051 0.00969633 0.00960026 -4.37219e-06 0.00965313 1.69895e-07 272.846 
-0.49 -0.31 -0.237785 0.559932 0.00969335 0.00959332 -1.34497e-05 0.00964483 1.7005e-07 272.363 
-0.39 -0.35 -0.328835 1.0603 0.00969242 0.00955388 -2.49503e-05 0.00963921 1.69946e-07 272.371 
-0.43 -0.33 -0.0859583 1.22642 0.00969576 0.00957112 -2.40718e-05 0.00963173 1.69592e-07 272.727 
-0.47 -0.31 -0.123734 1.17377 0.00969209 0.00957788 -2.74506e-05 0.00965361 1.70228e-07 272.326 
-0.37 -0.35 -0.234851 0.572424 0.00970087 0.00954461 -5.83522e-06 0.00962757 1.6967e-07 272.485 
-0.41 -0.33 -0.578063 0.731133 0.00970421 0.00953326 -3.02013e-05 0.0096252 1.69541e-07 272.625 
-0.45 -0.31 -0.438428 1.35379 0.00970423 0.0096027 -3.65048e-05 0.00966598 1.69953e-07 273.116 
-0.49 -0.29 0.00214644 1.10906 0.00975084 0.00959613 -2.61945e-05 0.00967658 1.70273e-07 272.901 
-0.35 -0.35 -0.653974 1.07836 0.00972312 0.00955555 -2.65531e-06 0.00963467 1.69932e-07 272.266 
-0.39 -0.33 -0.918827 1.18222 0.00970158 0.00955448 -1.41472e-05 0.00964239 1.70392e-07 271.747 
-0.43 -0.31 -0.0855946 1.40295 0.00974176 0.00959235 -3.65026e-05 0.00965595 1.70053e-07 272.673 
-0.47 -0.29 0.275942 1.15306 0.00976173 0.00959762 -3.7139e-05 0.00969305 1.70316e-07 273.297 
-0.37 -0.33 -0.952109 0.795879 0.00969356 0.00953322 -2.93706e-05 0.00962954 1.70034e-07 271.957 
-0.41 -0.31 -0.348788 1.59171 0.00972793 0.00951457 -1.27557e-05 0.0096459 1.70093e-07 272.325 
-0.45 -0.29 -0.0690417 1.32837 0.00975325 0.00960485 -3.90554e-05 0.00970609 1.69923e-07 274.298 
-0.35 -0.33 -0.811604 1.1285 0.00970277 0.00956054 -2.65558e-05 0.00965622 1.69857e-07 272.994 
-0.39 -0.31 -0.834808 1.39574 0.00971848 0.00953203 -2.77893e-05 0.00964644 1.69898e-07 272.652 
-0.43 -0.29 -0.070849 1.45113 0.00973969 0.00955282 -2.84786e-05 0.00965432 1.70096e-07 272.557 
-0.47 -0.27 -0.50923 0.781916 0.00972094 0.00961813 -3.03821e-05 0.00965895 1.69714e-07 273.302 
-0.33 -0.33 -0.834067 0.898616 0.00970527 0.00956069 -1.07346e-05 0.00964834 1.70438e-07 271.843 
-0.37 -0.31 -1.44947 0.899257 0.00970674 0.00956055 -3.20695e-05 0.0096617 1.69806e-07 273.232 
-0.41 -0.29 -0.0512485 1.71512 0.00973157 0.00952603 -1.41667e-05 0.00965816 1.69645e-07 273.39 
-0.45 -0.27 0.374842 1.27161 0.00972987 0.00959891 -3.66826e-05 0.00966344 1.70396e-07 272.334 
-0.35 -0.31 -1.35261 1.13777 0.00971836 0.0095428 -2.20775e-05 0.00965897 1.70271e-07 272.408 
-0.39 -0.29 -0.404534 2.11553 0.00974398 0.00953696 -1.72126e-05 0.00965453 1.70235e-07 272.341 
-0.43 -0.27 0.2817 1.83198 0.00969293 0.00953614 -1.73547e-05 0.00961936 1.69753e-07 272.119 
-0.37 -0.29 -0.53207 1.17251 0.00975646 0.00956278 -1.16731e-05 0.00965554 1.70159e-07 272.49 
-0.41 -0.27 0.0599544 1.78825 0.00971215 0.00953592 -2.26602e-05 0.00963765 1.69786e-07 272.584 
-0.35 -0.29 -0.961389 1.15064 0.00974256 0.00955194 -3.2403e-05 0.00966179 1.70338e-07 272.381 
-0.39 -0.27 0.610433 1.56008 0.00972529 0.0095416 -1.30549e-05 0.00964769 1.69881e-07 272.714 
-0.33 -0.29 -0.782486 1.15115 0.00973638 0.00955182 -2.90222e-05 0.00965346 1.70279e-07 272.24 
-0.37 -0.27 0.187231 1.85151 0.00971032 0.00956754 -1.50377e-05 0.00963923 1.69896e-07 272.451 
-0.35 -0.27 -0.536836 1.57153 0.00970026 0.00954911 -9.35738e-06 0.00961439 1.69358e-07 272.613 
-0.33 -0.27 -1.287 1.54424 0.00966883 0.00954584 -1.07196e-05 0.00962191 1.69662e-07 272.338 
-0.35 -0.37 -1.16254 0.285056 0.00970392 0.00954695 5.25943e-06 0.00963697 1.69594e-07 272.872 
-0.33 -0.37 -1.56534 0.44286 0.00970901 0.00956956 -7.64175e-06 0.00963622 1.69836e-07 272.463 
-0.33 -0.35 -1.22828 0.495128 0.00973874 0.00956712 -1.74673e-05 0.00965788 1.70262e-07 272.392 
-0.33 -0.31 -1.22041 0.925729 0.00971872 0.00954464 -2.02295e-05 0.00966326 1.70427e-07 272.281 
-0.31 -0.49 -0.877601 -0.0212534 0.0096848 0.00959215 2.95497e-06 0.00963318 1.69597e-07 272.761 
-0.29 -0.49 -1.21097 0.328025 0.0096825 0.00959092 4.49103e-05 0.00963041 1.69545e-07 272.765 
-0.27 -0.49 -1.09545 -0.33032 0.00965299 0.00960955 5.92829e-05 0.0096545 1.70038e-07 272.655 
-0.31 -0.47 -1.20331 -0.110873 0.00964075 0.00955059 2.08046e-05 0.00960976 1.69104e-07 272.89 
-0.29 -0.47 -0.827835 0.304613 0.00965007 0.00957489 4.42027e-05 0.00962822 1.69461e-07 272.838 
-0.27 -0.47 -0.807799 -0.452971 0.00967586 0.00961387 4.17724e-05 0.00964736 1.70055e-07 272.426 
-0.31 -0.45 -1.0393 -0.143548 0.00969428 0.00955568 3.20559e-05 0.00962068 1.6948e-07 272.594 
-0.29 -0.45 -1.2389 -0.235684 0.00969191 0.00956987 2.41004e-05 0.00961858 1.69731e-07 272.133 
-0.27 -0.45 -1.00262 -0.240225 0.00971414 0.00962667 1.48945e-05 0.00966663 1.70191e-07 272.752 
-0.31 -0.43 -1.30183 0.0729195 0.00972975 0.00956538 3.72255e-05 0.00964772 1.69986e-07 272.547 
-0.29 -0.43 -1.10109 -0.425378 0.00971881 0.00958177 1.38277e-05 0.00963453 1.69666e-07 272.687 
-0.27 -0.43 -1.39284 0.0967889 0.00971631 0.0096382 1.53905e-05 0.00968072 1.70493e-07 272.667 
-0.31 -0.41 -1.30795 0.055831 0.00970813 0.00956053 2.59432e-05 0.00963427 1.69654e-07 272.699 
-0.25 -0.43 -1.74586 -0.224095 0.00972256 0.00964211 7.41151e-06 0.00968413 1.70333e-07 273.019 
-0.29 -0.41 -1.78771 -0.214963 0.00973027 0.00960184 6.61821e-06 0.00965775 1.69701e-07 273.288 
-0.27 -0.41 -2.02628 -0.197842 0.00973311 0.00962528 -7.85353e-06 0.00968496 1.70152e-07 273.332 
-0.31 -0.39 -1.80754 0.0391218 0.00972492 0.00959066 -3.73273e-06 0.009659 1.70342e-07 272.295 
-0.25 -0.41 -1.6227 0.463791 0.00972118 0.0096413 2.73838e-05 0.00968254 1.70188e-07 273.206 
-0.29 -0.39 -1.79241 0.517084 0.00972731 0.00960064 7.39365e-06 0.0096496 1.70337e-07 272.039 
-0.27 -0.39 -2.12169 -0.385996 0.00972844 0.00959875 5.02817e-06 0.00966067 1.70161e-07 272.632 
-0.31 -0.37 -1.02779 -0.0481534 0.00971445 0.00956179 -8.73478e-06 0.00963515 1.69939e-07 272.267 
-0.25 -0.39 -1.5853 0.345655 0.00974526 0.00964316 8.35317e-06 0.00969136 1.70332e-07 273.224 
-0.29 -0.37 -1.34153 0.74382 0.00972535 0.00961554 -6.89478e-06 0.00967203 1.69961e-07 273.274 
-0.27 -0.37 -1.38944 -0.173113 0.00973932 0.00960182 1.13122e-05 0.00966178 1.70088e-07 272.781 
-0.31 -0.35 -1.20932 0.485735 0.00973345 0.00957126 -4.48014e-06 0.0096355 1.69981e-07 272.211 
-0.29 -0.35 -1.28077 0.360095 0.00972716 0.00959696 -3.27685e-06 0.00967462 1.70328e-07 272.758 
-0.27 -0.35 -1.41859 0.502129 0.00971573 0.00960284 7.72213e-06 0.00964947 1.69906e-07 272.725 
-0.31 -0.33 -1.00583 0.576533 0.00970297 0.00957506 -2.67098e-06 0.00965049 1.7026e-07 272.188 
-0.29 -0.33 -0.873653 0.583562 0.00971331 0.00957302 8.15198e-07 0.0096583 1.70279e-07 272.377 
-0.27 -0.33 -1.44538 0.850516 0.00971602 0.0096019 1.2041e-05 0.00966785 1.70194e-07 272.783 
-0.31 -0.31 -1.18503 0.493403 0.00974708 0.00957051 -1.44602e-05 0.00968096 1.70575e-07 272.542 
-0.29 -0.31 -1.73753 1.18266 0.00974973 0.00958462 -9.88386e-06 0.00968106 1.70152e-07 273.223 
-0.27 -0.31 -2.00054 0.814556 0.00973638 0.00957672 1.11714e-05 0.00965906 1.70423e-07 272.167 
-0.31 -0.29 -1.62949 1.27941 0.00971613 0.00953796 -1.67023e-05 0.00963619 1.69794e-07 272.53 
-0.25 -0.31 -1.96619 1.34725 0.00975461 0.00961216 1.78932e-05 0.00968029 1.70594e-07 272.492 
-0.29 -0.29 -2.00524 1.26754 0.00970936 0.00956872 3.19544e-07 0.00964273 1.7019e-07 272.08 
-0.27 -0.29 -2.3999 0.926407 0.00974181 0.00957893 6.50968e-06 0.00966074 1.70616e-07 271.908 
-0.31 -0.27 -1.2998 1.4736 0.0096615 0.009539 -6.64945e-06 0.00960915 1.69398e-07 272.4 
-0.25 -0.29 -1.80831 0.758994 0.00974073 0.00962105 7.91735e-06 0.00968038 1.70571e-07 272.531 
-0.29 -0.27 -1.16219 1.47083 0.009688 0.0095581 -1.78395e-05 0.0096458 1.70288e-07 272.009 
-0.27 -0.27 -1.64521 1.24879 0.00971167 0.00958951 -2.27491e-05 0.00966108 1.70044e-07 272.831 
-0.25 -0.27 -2.17539 0.69113 0.00971231 0.00959431 1.65539e-05 0.00965341 1.70277e-07 272.242 
-0.33 -0.45 -1.05858 0.347074 0.00972053 0.00959261 1.82433e-05 0.00967305 1.70174e-07 272.961 
-0.33 -0.41 -1.17633 0.380531 0.00971574 0.00956014 3.0183e-05 0.00963543 1.69875e-07 272.378 
-0.25 -0.49 -1.13382 -0.181292 0.00968036 0.00963426 6.2584e-05 0.0096637 1.70195e-07 272.664 
-0.23 -0.49 -0.859881 0.186379 0.00970632 0.00960477 4.22824e-05 0.0096569 1.70264e-07 272.361 
-0.25 -0.47 -0.643533 -0.179771 0.0096993 0.00964633 2.48389e-05 0.0096585 1.70617e-07 271.842 
-0.23 -0.47 -1.02021 0.473784 0.00972082 0.00963 9.64804e-06 0.00965631 1.70237e-07 272.388 
-0.25 -0.45 -1.28245 0.099922 0.00972843 0.00964575 2.22803e-05 0.00969118 1.70302e-07 273.267 
-0.23 -0.45 -1.99554 0.792865 0.0097181 0.00963562 2.57688e-05 0.00966354 1.70269e-07 272.54 
-0.25 -0.37 -1.40323 -0.372057 0.0097127 0.00961916 3.24681e-06 0.00967297 1.70173e-07 272.96 
-0.25 -0.35 -2.27015 -0.0239022 0.0097071 0.00960606 2.48983e-05 0.00966487 1.70194e-07 272.699 
-0.25 -0.33 -2.06124 0.456729 0.00971208 0.00960315 8.86143e-06 0.00967942 1.70127e-07 273.216 
-0.49 -0.25 -0.218136 1.80724 0.00971829 0.00958214 -4.58456e-05 0.00965611 1.69969e-07 272.812 
-0.47 -0.25 -0.576616 1.6289 0.00970153 0.00960228 -4.5798e-05 0.00966366 1.7017e-07 272.703 
-0.45 -0.25 -0.699712 0.727763 0.00971384 0.00957291 -2.48242e-05 0.00966052 1.69954e-07 272.96 
-0.49 -0.23 0.0540631 1.99912 0.00970781 0.00958689 -5.02836e-05 0.00964686 1.69838e-07 272.76 
-0.47 -0.23 -0.0998721 1.42641 0.00970864 0.00959682 -4.44039e-05 0.00967291 1.70389e-07 272.612 
-0.45 -0.23 -0.595663 1.17095 0.00969456 0.00954049 -2.98101e-05 0.00964203 1.6991e-07 272.508 
-0.49 -0.21 0.121657 1.67681 0.00971521 0.00959585 -4.76815e-05 0.0096693 1.7043e-07 272.446 
-0.43 -0.23 -0.490384 1.50134 0.00971055 0.00955582 -3.2159e-05 0.00963355 1.6962e-07 272.735 
-0.47 -0.21 0.0289709 1.93007 0.00971734 0.00959117 -3.86493e-05 0.00965987 1.70532e-07 272.017 
-0.41 -0.23 -0.446414 1.84903 0.00972366 0.00952246 -2.8281e-05 0.00962781 1.69541e-07 272.698 
-0.45 -0.21 -0.151458 1.16148 0.00972042 0.0095359 -3.23474e-05 0.00962837 1.70109e-07 271.804 
-0.49 -0.19 -0.220043 2.05687 0.00968742 0.00955546 -6.42828e-05 0.00960589 1.69425e-07 272.264 
-0.39 -0.23 -0.877964 1.85735 0.00973271 0.00958371 -2.56279e-05 0.00967121 1.70078e-07 273.063 
-0.43 -0.21 -0.621173 1.47813 0.00973137 0.00955349 -2.65404e-05 0.00964766 1.69967e-07 272.575 
-0.47 -0.19 0.362063 1.65055 0.00971622 0.00959141 -4.51471e-05 0.00966218 1.70864e-07 271.554 
-0.41 -0.21 -0.548937 1.96679 0.00972161 0.00952642 -3.35904e-05 0.00962971 1.69749e-07 272.418 
-0.45 -0.19 -0.00798828 2.04505 0.00972834 0.00955151 -5.18452e-05 0.0096484 1.69829e-07 272.819 
-0.49 -0.17 -0.00855086 1.91574 0.00973352 0.00956389 -6.73483e-05 0.00965198 1.70594e-07 271.696 
-0.39 -0.21 -0.59907 2.22322 0.00972987 0.00955644 -2.90502e-05 0.00963941 1.70184e-07 271.996 
-0.43 -0.19 -1.0158 1.77711 0.0097335 0.00953223 -3.90953e-05 0.00963999 1.69591e-07 272.963 
-0.47 -0.17 -0.454663 1.78439 0.00972713 0.00956927 -4.57472e-05 0.00967447 1.70643e-07 272.251 
-0.41 -0.19 -1.16555 2.21178 0.00973112 0.00953184 -1.27194e-05 0.00964796 1.69418e-07 273.468 
-0.45 -0.17 -0.451073 2.61408 0.00971867 0.00954135 -4.13867e-05 0.0096477 1.69953e-07 272.6 
-0.49 -0.15 0.0274143 2.51653 0.00966873 0.00952206 -7.02938e-05 0.0096046 1.69826e-07 271.584 
-0.39 -0.19 -1.32212 2.17308 0.00973234 0.00953707 -2.38779e-05 0.009643 1.69947e-07 272.476 
-0.43 -0.17 -0.501011 2.1931 0.00973434 0.00951349 -2.81193e-05 0.00963993 1.69976e-07 272.343 
-0.47 -0.15 0.0131773 1.68284 0.0096659 0.00955466 -4.2403e-05 0.00963034 1.69448e-07 272.92 
-0.41 -0.17 -1.11933 2.07032 0.00974245 0.0095416 -2.64732e-05 0.00966684 1.70001e-07 273.063 
-0.45 -0.15 -0.0392774 2.17306 0.00968002 0.00954994 -4.60939e-05 0.00962 1.69536e-07 272.485 
-0.39 -0.17 -1.29867 2.96032 0.00971779 0.00952358 -3.39948e-05 0.00964653 1.69987e-07 272.513 
-0.43 -0.15 -0.439777 2.87994 0.00967223 0.00948414 -5.28573e-05 0.00958865 1.69325e-07 271.935 
-0.41 -0.15 -0.736796 2.40159 0.00970393 0.00953665 -2.60114e-05 0.00965566 1.70087e-07 272.609 
-0.39 -0.15 -1.2316 3.21513 0.00972686 0.00953854 -2.58143e-05 0.00964184 1.70045e-07 272.287 
-0.49 -0.27 0.0763451 1.42132 0.00969815 0.00957677 -4.10252e-05 0.00963657 1.69801e-07 272.529 
-0.43 -0.25 -0.440887 1.43861 0.00973245 0.00955156 6.1612e-06 0.00964773 1.69903e-07 272.68 
-0.41 -0.25 -0.143222 1.87949 0.0097265 0.00953029 -2.55877e-05 0.00963535 1.69887e-07 272.356 
-0.39 -0.25 -0.763124 1.31614 0.00970779 0.00955207 -2.19166e-05 0.00964519 1.69607e-07 273.085 
-0.33 -0.25 -0.485273 1.53839 0.00973046 0.00955464 -1.95547e-06 0.00965599 1.69942e-07 272.852 
-0.37 -0.25 -0.512766 2.60017 0.0097317 0.00955243 -2.20087e-05 0.00964519 1.69958e-07 272.521 
-0.35 -0.25 -0.620965 1.90011 0.00972464 0.00954244 5.22559e-06 0.00965559 1.70072e-07 272.632 
-0.37 -0.23 -0.779072 1.69164 0.00970436 0.00951824 -1.78164e-05 0.00962835 1.69539e-07 272.718 
-0.35 -0.23 -0.341583 2.18865 0.00972289 0.00953221 -1.49811e-07 0.00963155 1.70085e-07 271.932 
-0.37 -0.21 -1.11513 1.46471 0.00974788 0.00951483 -2.40178e-05 0.00964531 1.69762e-07 272.839 
-0.35 -0.21 -1.51259 2.29414 0.00975996 0.00954517 -2.67284e-05 0.00966211 1.69898e-07 273.096 
-0.37 -0.19 -1.53069 2.11999 0.00973247 0.00952118 -1.86224e-05 0.00963517 1.69605e-07 272.805 
-0.35 -0.19 -1.23555 1.82832 0.00972315 0.00954657 -3.50003e-05 0.00963783 1.70282e-07 271.795 
-0.37 -0.17 -1.66301 1.78717 0.00972732 0.00953155 -1.86196e-05 0.00965307 1.69955e-07 272.749 
-0.35 -0.17 -1.45263 1.39363 0.0097302 0.00954949 -2.51617e-05 0.0096426 1.69856e-07 272.61 
-0.33 -0.17 -1.54395 2.1107 0.00974699 0.00957493 -3.6573e-05 0.0096638 1.70447e-07 272.263 
-0.37 -0.15 -1.0492 1.85949 0.00971291 0.00952394 -4.16579e-05 0.00963311 1.69761e-07 272.495 
-0.35 -0.15 -1.48418 1.87026 0.0097261 0.00956698 -4.3581e-05 0.00964828 1.69871e-07 272.748 
-0.33 -0.15 -1.5301 1.98551 0.00972628 0.00955683 -4.50494e-05 0.00965336 1.70107e-07 272.513 
-0.37 -0.13 -1.10603 2.56267 0.00973139 0.00952775 -5.9572e-05 0.00963393 1.69456e-07 273.008 
-0.35 -0.13 -1.25099 1.80755 0.00974174 0.0095547 -4.04143e-05 0.00965252 1.69772e-07 273.027 
-0.33 -0.13 -1.67367 2.53281 0.00971977 0.00953109 -1.87304e-05 0.00963388 1.69505e-07 272.928 
-0.37 -0.11 -1.04139 3.05515 0.00968393 0.00950938 -6.25079e-05 0.00959802 1.68759e-07 273.114 
-0.35 -0.11 -1.44101 2.35558 0.00966945 0.00951884 -5.05379e-05 0.00960861 1.69198e-07 272.707 
-0.33 -0.11 -2.09159 2.88717 0.0096851 0.00949092 -9.54126e-06 0.00962153 1.69253e-07 272.985 
-0.35 -0.09 -0.994241 2.95314 0.00967915 0.00952762 -3.32788e-05 0.00961121 1.69702e-07 271.97 
-0.49 -0.13 0.0552534 2.27665 0.00970198 0.00953556 -8.16188e-05 0.00962577 1.69888e-07 272.084 
-0.47 -0.13 -0.0806816 2.13099 0.00971529 0.00952477 -7.05222e-05 0.0096267 1.70162e-07 271.672 
-0.45 -0.13 -0.950141 2.92215 0.00972754 0.00954759 -4.66841e-05 0.00963395 1.69453e-07 273.014 
-0.49 -0.11 0.117148 2.55248 0.00969796 0.00951026 -7.62982e-05 0.00960385 1.69713e-07 271.744 
-0.43 -0.13 -1.27027 2.65206 0.00973239 0.00951259 -4.59585e-05 0.00964653 1.69879e-07 272.685 
-0.47 -0.11 -0.509418 2.53535 0.00969149 0.00953455 -7.05803e-05 0.00959965 1.69456e-07 272.038 
-0.41 -0.13 -1.38018 2.82669 0.00968465 0.00951411 -5.86832e-05 0.00963406 1.6947e-07 272.99 
-0.45 -0.11 -0.928302 2.94209 0.00967952 0.00953397 -6.50584e-05 0.00963829 1.69741e-07 272.673 
-0.49 -0.09 -0.254427 2.74355 0.00966405 0.00950618 -5.63961e-05 0.00959041 1.6979e-07 271.24 
-0.39 -0.13 -0.680843 3.43679 0.00968828 0.00953365 -4.98711e-05 0.00962712 1.69711e-07 272.406 
-0.43 -0.11 -1.0133 3.32526 0.00967219 0.00949742 -4.03436e-05 0.00958949 1.69298e-07 272.003 
-0.47 -0.09 -0.684976 3.42879 0.00966701 0.00953938 -8.20056e-05 0.00961563 1.69647e-07 272.184 
-0.41 -0.11 -1.13697 2.56402 0.00969536 0.00952597 -4.8318e-05 0.00963214 1.69715e-07 272.542 
-0.45 -0.09 -0.804267 2.90249 0.0096578 0.00950479 -5.58052e-05 0.00960084 1.69237e-07 272.423 
-0.39 -0.11 -1.29004 3.18757 0.00970882 0.00955362 -6.00238e-05 0.00962556 1.6965e-07 272.459 
-0.43 -0.09 -0.77362 3.10278 0.00968613 0.00949553 -6.00685e-05 0.00959731 1.69477e-07 271.938 
-0.41 -0.09 -0.739199 3.00957 0.0096919 0.00954623 -4.27399e-05 0.00961613 1.69627e-07 272.231 
-0.39 -0.09 -1.00266 2.93129 0.00969839 0.00953689 -5.46289e-05 0.00961088 1.69408e-07 272.433 
-0.37 -0.09 -0.757678 2.78291 0.00970088 0.00950618 -3.16626e-05 0.00960636 1.69153e-07 272.715 
-0.35 -0.03 -1.28058 3.93413 0.0096721 0.00947157 -2.87466e-05 0.00959504 1.6881e-07 272.948 
-0.37 -0.07 -1.03947 3.19398 0.00967068 0.00949195 -4.32027e-05 0.00959098 1.68753e-07 272.924 
-0.41 -0.05 -1.20387 3.46397 0.00965672 0.0095069 -5.89285e-05 0.00958227 1.68836e-07 272.542 
-0.45 -0.03 -0.517691 3.57926 0.00964708 0.00949591 -0.000109225 0.00959117 1.69266e-07 272.103 
-0.35 -0.07 -1.11894 3.17072 0.0097193 0.0095292 -3.10349e-05 0.0096423 1.70047e-07 272.297 
-0.39 -0.05 -1.05009 2.68263 0.00969394 0.00952219 -3.68349e-05 0.00961559 1.69462e-07 272.48 
-0.43 -0.03 -0.357312 3.739 0.00968208 0.00949175 -7.08256e-05 0.00961226 1.69541e-07 272.259 
-0.33 -0.07 -1.53127 3.35576 0.00970408 0.00948743 -1.92373e-05 0.00961677 1.69226e-07 272.892 
-0.37 -0.05 -0.681426 2.89863 0.00966478 0.0095005 -5.2231e-05 0.00959889 1.68997e-07 272.755 
-0.41 -0.03 -0.383961 3.67666 0.0096681 0.00948438 -5.34302e-05 0.00957475 1.68859e-07 272.292 
-0.35 -0.05 -1.11556 3.483 0.00964346 0.0094962 -4.29832e-05 0.00958758 1.68536e-07 273.178 
-0.39 -0.03 -0.362651 2.89744 0.00964388 0.0094968 -5.48712e-05 0.00956504 1.68623e-07 272.396 
-0.33 -0.05 -1.31798 3.96256 0.00965203 0.00948694 -2.74248e-05 0.00958235 1.68628e-07 272.881 
-0.37 -0.03 -0.800198 3.23511 0.00967506 0.00952307 -5.11301e-05 0.00960793 1.6911e-07 272.829 
-0.33 -0.03 -1.77887 3.70485 0.00968621 0.00951236 -3.85377e-05 0.00961228 1.69508e-07 272.312 
-0.49 -0.07 -0.0400474 3.13231 0.00966711 0.00951355 -7.52881e-05 0.00959352 1.69441e-07 271.888 
-0.47 -0.07 0.236725 3.09793 0.00966715 0.00952654 -7.41036e-05 0.00959226 1.69852e-07 271.194 
-0.45 -0.07 -0.25811 3.58592 0.00967661 0.00951267 -6.61897e-05 0.00960388 1.69707e-07 271.755 
-0.49 -0.05 -0.133643 3.17992 0.00964248 0.00948939 -0.00010358 0.00955286 1.68861e-07 271.665 
-0.43 -0.07 -0.310993 2.90118 0.00967077 0.00949324 -5.13527e-05 0.0095952 1.69461e-07 271.903 
-0.47 -0.05 -0.360347 3.48464 0.00964667 0.00952776 -8.35501e-05 0.00958437 1.69354e-07 271.768 
-0.41 -0.07 -0.621114 3.39182 0.00969555 0.00954354 -5.47161e-05 0.0096416 1.70036e-07 272.294 
-0.45 -0.05 -0.231491 3.25406 0.00964647 0.00949723 -6.07935e-05 0.00958677 1.68935e-07 272.511 
-0.49 -0.03 -0.0637 3.4787 0.00960184 0.00947611 -0.00010782 0.00957035 1.69048e-07 271.861 
-0.39 -0.07 -1.00102 2.92943 0.00967449 0.00950875 -4.11121e-05 0.00962091 1.69632e-07 272.358 
-0.43 -0.05 -0.823263 3.84755 0.00965351 0.00950763 -7.52127e-05 0.00959954 1.69327e-07 272.241 
-0.47 -0.03 -0.486971 3.34808 0.0096248 0.0095183 -8.96595e-05 0.00960182 1.6942e-07 272.157 
-0.27 -0.07 -1.52512 2.98361 0.00969771 0.0095759 -2.98059e-05 0.00964831 1.69751e-07 272.941 
-0.31 -0.05 -1.72462 3.67472 0.00969286 0.00953647 -3.57811e-05 0.00962703 1.69543e-07 272.674 
-0.27 -0.09 -1.62211 2.45626 0.00972849 0.00957121 -2.64925e-05 0.00965821 1.70221e-07 272.468 
-0.31 -0.07 -1.34489 3.35249 0.00967135 0.00952419 -3.34884e-05 0.00960975 1.69006e-07 273.049 
-0.29 -0.07 -2.01553 2.41335 0.00967685 0.00952338 -3.62055e-05 0.00960776 1.69644e-07 271.966 
-0.25 -0.07 -1.45536 2.69648 0.00967697 0.0095516 6.40588e-08 0.00963411 1.69739e-07 272.558 
-0.29 -0.05 -2.08463 2.53452 0.00968716 0.00952495 -4.01688e-05 0.00961451 1.694e-07 272.549 
-0.27 -0.05 -2.13842 2.60857 0.00967615 0.00953572 -2.20961e-05 0.00962664 1.69649e-07 272.492 
-0.31 -0.03 -1.46119 3.57263 0.00967369 0.00951123 -4.30136e-05 0.00962501 1.69918e-07 272.015 
-0.25 -0.05 -2.13932 2.60966 0.00971302 0.00955957 -1.77377e-05 0.00963707 1.69827e-07 272.502 
-0.29 -0.03 -0.868711 3.11394 0.00967763 0.00953751 -4.17551e-05 0.00963059 1.69807e-07 272.351 
-0.27 -0.03 -1.64459 2.67082 0.00966856 0.00954508 -3.29942e-05 0.00961743 1.70263e-07 271.249 
-0.25 -0.03 -2.04468 3.18072 0.00966675 0.00955645 -5.21944e-05 0.00961756 1.69861e-07 271.895 
-0.31 -0.25 -0.878989 1.51716 0.00972745 0.00955101 -2.0338e-05 0.00964804 1.70246e-07 272.14 
-0.29 -0.25 -1.50881 1.2201 0.00973924 0.00957173 -4.81167e-05 0.00966291 1.70283e-07 272.5 
-0.27 -0.25 -1.32461 2.02306 0.00972661 0.00955978 -9.31819e-06 0.00966348 1.7006e-07 272.873 
-0.29 -0.11 -1.72694 2.44036 0.00969261 0.00953208 -8.75796e-06 0.00961731 1.69482e-07 272.496 
-0.33 -0.09 -1.20609 3.17565 0.00965814 0.00947238 -4.95269e-05 0.00958862 1.69016e-07 272.433 
-0.27 -0.11 -1.90747 2.2085 0.00971559 0.00955129 -2.75994e-05 0.00964878 1.70163e-07 272.294 
-0.31 -0.09 -1.53432 3.21495 0.00968477 0.00952819 -2.8286e-05 0.00961895 1.69409e-07 272.661 
-0.29 -0.09 -1.49055 2.61962 0.0097226 0.00953356 -1.51076e-05 0.00963283 1.69683e-07 272.613 
-0.33 -0.23 -0.753789 1.50724 0.00974283 0.00958544 -1.09822e-05 0.00968112 1.7064e-07 272.442 
-0.31 -0.23 -1.06555 1.83689 0.00976355 0.00958366 -4.71787e-05 0.00968621 1.70721e-07 272.457 
-0.29 -0.23 -1.20459 1.58927 0.00975559 0.00954933 -3.15433e-05 0.00966089 1.70103e-07 272.731 
-0.33 -0.21 -1.43563 1.48688 0.00976738 0.0095904 -1.38801e-05 0.00966699 1.70293e-07 272.6 
-0.27 -0.23 -1.59309 1.93489 0.00973858 0.00954161 -1.30249e-05 0.0096431 1.69783e-07 272.743 
-0.31 -0.21 -1.4465 1.88621 0.00975312 0.00958874 -1.91341e-05 0.0096846 1.70772e-07 272.33 
-0.29 -0.21 -1.9359 1.75709 0.00973969 0.00954196 -1.82985e-05 0.00966717 1.7034e-07 272.53 
-0.33 -0.19 -0.974193 1.3863 0.00974122 0.0095722 -1.95029e-05 0.00965589 1.70406e-07 272.106 
-0.27 -0.21 -2.39774 2.1185 0.00971746 0.00953373 -1.16658e-05 0.00963952 1.69889e-07 272.471 
-0.31 -0.19 -1.78824 2.15285 0.009746 0.00959901 -2.50545e-05 0.00968281 1.70667e-07 272.448 
-0.25 -0.21 -2.34457 1.66992 0.00971262 0.00957454 2.70415e-06 0.00963462 1.70056e-07 272.065 
-0.29 -0.19 -1.76016 2.1931 0.00971901 0.00951953 6.02063e-06 0.00964586 1.69932e-07 272.581 
-0.27 -0.19 -2.17278 2.43195 0.00975109 0.00954561 -1.60258e-05 0.00965842 1.70119e-07 272.637 
-0.31 -0.17 -1.34157 2.30549 0.00975305 0.00955784 -5.92863e-06 0.00968466 1.70761e-07 272.349 
-0.25 -0.19 -2.38226 1.92088 0.00973906 0.00954263 -4.53368e-07 0.00966144 1.70433e-07 272.219 
-0.29 -0.17 -1.72044 2.48402 0.00976746 0.00954575 -8.99815e-06 0.0096811 1.70429e-07 272.779 
-0.27 -0.17 -1.59586 1.88589 0.00974664 0.0095296 -1.46275e-05 0.00967176 1.70356e-07 272.633 
-0.31 -0.15 -2.27735 2.59303 0.00973054 0.00953894 -9.74686e-06 0.00964881 1.69919e-07 272.686 
-0.25 -0.17 -1.58912 2.28671 0.00973397 0.00952871 -3.03011e-06 0.00963359 1.69733e-07 272.554 
-0.29 -0.15 -2.45651 2.16022 0.0097209 0.00953648 -5.6579e-07 0.0096366 1.70048e-07 272.134 
-0.27 -0.15 -1.98358 2.27672 0.00969816 0.0095301 1.28279e-05 0.00963384 1.7003e-07 272.085 
-0.31 -0.13 -2.05848 2.81691 0.00968907 0.00951517 2.02697e-06 0.00961228 1.6893e-07 273.244 
-0.25 -0.15 -1.91906 2.15211 0.00969257 0.00953561 -3.5867e-06 0.00961797 1.69763e-07 272.064 
-0.29 -0.13 -2.12647 2.27077 0.00970153 0.00953267 -9.10242e-06 0.00960533 1.69288e-07 272.469 
-0.27 -0.13 -1.95865 2.44809 0.00970786 0.00953779 -3.13184e-06 0.00963499 1.69913e-07 272.304 
-0.31 -0.11 -1.93943 2.97823 0.00971702 0.00954154 -5.78485e-06 0.00964929 1.69943e-07 272.661 