ITEM: TIMESTEP
922500
ITEM: NUMBER OF CELLS
2500
ITEM: BOX BOUNDS ss ss pp
-0.5 0.5
-0.5 0.5
-0.5 0.5
ITEM: CELLS xc yc f_U[*] f_V[*] f_Tau[1] f_Tau[2] f_Tau[3] f_Press[*] f_Mrho[*] f_Ttra[*] 
-0.49 -0.49 -0.0235549 0.0639618 0.00966996 0.00955958 -8.15879e-06 0.00961175 1.69506e-07 272.3 
-0.47 -0.49 -0.223385 0.11727 0.0096535 0.00955129 -1.10088e-05 0.00960536 1.69238e-07 272.55 
-0.45 -0.49 -0.413539 0.150533 0.00965847 0.00956383 1.84497e-07 0.00961781 1.69302e-07 272.8 
-0.49 -0.47 -0.17735 0.224578 0.00966348 0.00955908 3.75649e-07 0.00961248 1.69358e-07 272.559 
-0.43 -0.49 -0.642976 0.0654243 0.00966029 0.00957525 -9.61151e-07 0.00961756 1.6938e-07 272.667 
-0.47 -0.47 -0.236422 0.331469 0.00966995 0.00955837 -2.13128e-06 0.00962504 1.69518e-07 272.658 
-0.41 -0.49 -0.77418 0.0933143 0.00966923 0.00954825 -5.41488e-06 0.00961084 1.69201e-07 272.765 
-0.45 -0.47 -0.399353 0.254504 0.0096712 0.00956148 -1.54602e-05 0.00962351 1.69406e-07 272.794 
-0.49 -0.45 -0.021048 0.456554 0.00967322 0.00955615 -2.22994e-05 0.0096199 1.69425e-07 272.662 
-0.39 -0.49 -0.833967 -0.0546243 0.00967934 0.00958324 1.75699e-05 0.00963171 1.6948e-07 272.908 
-0.43 -0.47 -0.307825 0.0512085 0.00968531 0.00957725 -6.81601e-06 0.00963208 1.69458e-07 272.954 
-0.47 -0.45 -0.300278 0.41601 0.00969112 0.0095578 -7.342e-06 0.00963188 1.69468e-07 272.932 
-0.37 -0.49 -0.644712 -0.00940941 0.00967379 0.00957237 1.39896e-05 0.00962489 1.69417e-07 272.815 
-0.41 -0.47 -0.444837 0.247107 0.00967731 0.00953744 2.08664e-06 0.00961683 1.69279e-07 272.809 
-0.45 -0.45 -0.338863 0.252523 0.00969045 0.00957197 -1.41914e-05 0.0096389 1.6959e-07 272.934 
-0.49 -0.43 -0.0310508 0.517484 0.00970013 0.00956025 -1.26444e-05 0.00962797 1.69539e-07 272.707 
-0.35 -0.49 -0.71592 0.0767976 0.00968123 0.00957547 1.73645e-05 0.0096201 1.69403e-07 272.703 
-0.39 -0.47 -0.467167 0.0347594 0.00968264 0.00957772 1.48741e-06 0.00962456 1.69479e-07 272.706 
-0.43 -0.45 -0.530221 0.173141 0.00968454 0.00955449 -4.77772e-06 0.0096233 1.69508e-07 272.624 
-0.47 -0.43 -0.0442115 0.508848 0.00968988 0.00955633 -2.26557e-05 0.00962955 1.69619e-07 272.623 
-0.37 -0.47 -0.637827 0.0327408 0.00969381 0.00956468 1.16063e-05 0.00962839 1.69555e-07 272.693 
-0.41 -0.45 -0.538738 0.22367 0.00969749 0.00954992 -1.64849e-06 0.00962617 1.69525e-07 272.678 
-0.45 -0.43 -0.15221 0.454647 0.00969811 0.00956771 -4.72391e-06 0.00964325 1.69877e-07 272.596 
-0.49 -0.41 -0.114852 0.604145 0.0096951 0.00957241 -7.77326e-06 0.00964035 1.69843e-07 272.568 
-0.35 -0.47 -0.88501 0.16712 0.00970126 0.00957653 1.64608e-05 0.00964373 1.69803e-07 272.728 
-0.39 -0.45 -0.505744 0.136599 0.00969645 0.00956356 -2.02682e-06 0.00962849 1.69714e-07 272.44 
-0.43 -0.43 -0.307263 0.383236 0.00969156 0.00954948 -6.64843e-06 0.00962576 1.6963e-07 272.498 
-0.47 -0.41 -0.258125 0.628938 0.009701 0.00955738 -2.05447e-05 0.00963788 1.69674e-07 272.77 
-0.37 -0.45 -0.729039 0.291822 0.0096937 0.00956713 1.07743e-05 0.00962875 1.69628e-07 272.585 
-0.41 -0.43 -0.556523 0.313435 0.00968833 0.00955643 -8.55308e-06 0.00963035 1.6949e-07 272.853 
-0.45 -0.41 -0.346565 0.511379 0.00969389 0.00955147 -5.46079e-06 0.00962801 1.69736e-07 272.391 
-0.49 -0.39 -0.1074 0.839514 0.00970276 0.00957538 -1.60606e-05 0.00964493 1.69885e-07 272.631 
-0.35 -0.45 -0.766678 0.214368 0.00968687 0.00956469 9.06089e-06 0.00963499 1.6977e-07 272.535 
-0.39 -0.43 -0.938932 0.227823 0.00968712 0.00954254 1.59809e-06 0.00961862 1.69624e-07 272.306 
-0.43 -0.41 -0.397205 0.496296 0.00969997 0.00956401 2.94807e-07 0.0096371 1.69686e-07 272.728 
-0.47 -0.39 -0.207195 0.623622 0.00969381 0.0095459 -1.0709e-05 0.00962991 1.69761e-07 272.405 
-0.37 -0.43 -1.03385 0.436277 0.00970197 0.0095662 2.67593e-06 0.00963711 1.69708e-07 272.694 
-0.41 -0.41 -0.435774 0.62164 0.00969817 0.00955107 -1.01633e-05 0.00962489 1.69703e-07 272.356 
-0.45 -0.39 -0.309537 0.746166 0.00969454 0.00955385 -1.42998e-05 0.00962848 1.69494e-07 272.793 
-0.35 -0.43 -1.13526 0.28937 0.00971986 0.00957664 1.76877e-06 0.00965222 1.69787e-07 272.995 
-0.39 -0.41 -0.549616 0.361198 0.0097016 0.00953919 -1.38377e-05 0.00963153 1.69727e-07 272.505 
-0.43 -0.39 -0.381604 0.634902 0.00971746 0.00955517 -1.61164e-05 0.00963997 1.69652e-07 272.864 
-0.37 -0.41 -0.624218 0.483964 0.00971352 0.00956447 -9.3914e-06 0.00964962 1.6994e-07 272.674 
-0.41 -0.39 -0.491265 0.514819 0.00972566 0.00955485 -1.06805e-05 0.00964374 1.69811e-07 272.716 
-0.35 -0.41 -0.806138 0.541809 0.0097127 0.00956404 1.81453e-06 0.00964503 1.69866e-07 272.663 
-0.39 -0.39 -0.612476 0.596433 0.00972022 0.00954612 -4.0828e-06 0.00964363 1.69743e-07 272.822 
-0.37 -0.39 -0.971029 0.677314 0.00970489 0.0095575 -8.34837e-06 0.00964603 1.70067e-07 272.37 
-0.41 -0.37 -0.620063 0.624049 0.0096992 0.0095542 -9.21448e-06 0.00963654 1.69726e-07 272.648 
-0.35 -0.39 -1.08918 0.75633 0.00969542 0.00955194 -1.71254e-06 0.00963408 1.69692e-07 272.633 
-0.33 -0.39 -1.24002 0.669991 0.00971515 0.00956854 -1.2479e-06 0.00964152 1.69768e-07 272.721 
-0.33 -0.49 -0.878824 0.0626633 0.00968334 0.0095737 2.2475e-05 0.00963652 1.69526e-07 272.969 
-0.33 -0.47 -0.874219 0.147326 0.00970027 0.00958236 8.92e-06 0.00965441 1.69792e-07 273.049 
-0.33 -0.43 -1.25403 0.408685 0.00970914 0.00956869 1.20658e-05 0.00964229 1.69803e-07 272.688 
-0.49 -0.37 -0.0841575 1.06399 0.00969736 0.00957636 -1.96454e-05 0.00964754 1.69831e-07 272.79 
-0.47 -0.37 -0.205875 0.746563 0.00970959 0.00955019 -1.01675e-05 0.00964023 1.69736e-07 272.737 
-0.45 -0.37 -0.412526 0.782083 0.0097134 0.00956242 -2.93423e-05 0.00963767 1.69602e-07 272.88 
-0.49 -0.35 0.0781558 1.11117 0.00971104 0.00956877 -2.24421e-05 0.00964528 1.69742e-07 272.87 
-0.43 -0.37 -0.556918 0.624419 0.00970487 0.00953996 -1.86748e-05 0.00963058 1.69506e-07 272.834 
-0.47 -0.35 0.0202713 0.847173 0.00970539 0.00955368 -2.45996e-05 0.00963183 1.69588e-07 272.737 
-0.45 -0.35 -0.0717883 0.914454 0.00971017 0.00956083 -1.87553e-05 0.00963859 1.69878e-07 272.462 
-0.49 -0.33 -0.0037044 0.980272 0.00968508 0.00956427 -2.34938e-05 0.00962435 1.69382e-07 272.856 
-0.39 -0.37 -0.730737 0.903519 0.00970152 0.00954459 -5.75894e-06 0.00963218 1.69588e-07 272.748 
-0.43 -0.35 -0.300032 0.922877 0.00969851 0.00953706 -1.54681e-05 0.0096256 1.69517e-07 272.675 
-0.47 -0.33 -0.146389 1.14744 0.00969656 0.00955466 -2.28455e-05 0.00963757 1.69699e-07 272.721 
-0.37 -0.37 -0.856821 0.897962 0.00970542 0.00955003 -9.63992e-09 0.0096365 1.69587e-07 272.871 
-0.41 -0.35 -0.720998 0.676407 0.00970359 0.00954748 -1.17089e-05 0.00964029 1.69912e-07 272.456 
-0.45 -0.33 -0.273248 1.06664 0.00969293 0.00954955 -1.4587e-05 0.00962838 1.69765e-07 272.355 
-0.49 -0.31 -0.0413836 1.05122 0.00970266 0.00957135 -2.24176e-05 0.00964693 1.69892e-07 272.675 
-0.39 -0.35 -0.949909 0.958838 0.00971467 0.00954061 -1.00052e-05 0.00964093 1.69847e-07 272.578 
-0.43 -0.33 -0.439597 1.01914 0.0096996 0.00954664 -1.8637e-05 0.00963333 1.6976e-07 272.503 
-0.47 -0.31 -0.268254 1.37438 0.00970285 0.00955263 -2.47523e-05 0.00964264 1.69851e-07 272.619 
-0.37 -0.35 -0.752767 0.882018 0.00972345 0.00955126 -7.10346e-06 0.00964411 1.69662e-07 272.965 
-0.41 -0.33 -0.579886 1.15261 0.00970696 0.00953822 -1.88305e-05 0.00963218 1.69744e-07 272.496 
-0.45 -0.31 -0.445374 1.24968 0.00971085 0.00954977 -2.30455e-05 0.00963561 1.69695e-07 272.672 
-0.49 -0.29 -0.130838 1.35917 0.00969993 0.00957051 -3.83985e-05 0.00964141 1.69815e-07 272.643 
-0.35 -0.35 -0.930573 1.12315 0.00972601 0.00955904 -6.89628e-06 0.00964486 1.69914e-07 272.582 
-0.39 -0.33 -0.928395 0.935577 0.00971283 0.00954652 -1.73782e-05 0.0096384 1.69877e-07 272.459 
-0.43 -0.31 -0.176039 1.01275 0.00971653 0.0095518 -2.54635e-05 0.00964191 1.69845e-07 272.609 
-0.47 -0.29 -0.154288 1.50267 0.00970995 0.00955066 -3.40749e-05 0.00964159 1.6972e-07 272.801 
-0.37 -0.33 -0.939274 0.965816 0.00971336 0.00954215 -1.94021e-05 0.00964096 1.69656e-07 272.887 
-0.41 -0.31 -0.469829 1.52993 0.00971723 0.00953539 -1.85177e-05 0.00963646 1.70023e-07 272.17 
-0.45 -0.29 -0.132773 1.08077 0.00971304 0.00954101 -2.57081e-05 0.0096418 1.69649e-07 272.921 
-0.35 -0.33 -1.03066 1.30885 0.00972378 0.00956288 -7.13337e-06 0.00964964 1.69776e-07 272.939 
-0.39 -0.31 -0.650504 1.21871 0.00971835 0.0095403 -2.36403e-05 0.00964033 1.6971e-07 272.782 
-0.43 -0.29 -0.426689 1.1883 0.00971753 0.00955599 -2.28977e-05 0.00964417 1.7003e-07 272.377 
-0.47 -0.27 -0.170426 1.23602 0.00970333 0.00955458 -3.29849e-05 0.00963728 1.69591e-07 272.887 
-0.33 -0.33 -1.16517 1.21732 0.0097173 0.0095478 -3.11402e-07 0.00964421 1.69872e-07 272.63 
-0.37 -0.31 -1.17598 1.06252 0.00971534 0.00954424 -1.63101e-05 0.00964378 1.69853e-07 272.649 
-0.41 -0.29 -0.490467 1.6561 0.00971612 0.00953627 -3.10774e-05 0.00964333 1.69887e-07 272.583 
-0.45 -0.27 -0.0937006 1.4658 0.00970454 0.00954089 -3.25199e-05 0.00963479 1.69853e-07 272.395 
-0.35 -0.31 -1.34397 1.47506 0.00971423 0.00954267 -8.41862e-06 0.00964225 1.69884e-07 272.557 
-0.39 -0.29 -0.670539 1.63981 0.00971996 0.00953388 -1.51356e-05 0.00963523 1.6983e-07 272.444 
-0.43 -0.27 -0.504245 1.52988 0.00970464 0.00955295 -2.61142e-05 0.00963668 1.69827e-07 272.491 
-0.37 -0.29 -0.976698 1.3993 0.00971956 0.00953691 -1.44813e-05 0.00963611 1.69735e-07 272.622 
-0.41 -0.27 -0.597917 1.65934 0.00970381 0.00953396 -2.8087e-05 0.00962803 1.69737e-07 272.39 
-0.35 -0.29 -0.867638 1.39492 0.00971012 0.00953176 -8.46559e-06 0.00962872 1.69563e-07 272.689 
-0.39 -0.27 -0.695977 1.79881 0.0097004 0.00952345 -1.70457e-05 0.0096184 1.69488e-07 272.517 
-0.33 -0.29 -1.06949 1.25992 0.0097222 0.00953848 -3.45619e-06 0.00963993 1.69842e-07 272.557 
-0.37 -0.27 -0.84438 1.46753 0.00970541 0.00952978 -1.09661e-05 0.00962023 1.69489e-07 272.567 
-0.35 -0.27 -1.15918 1.57153 0.00971573 0.00953754 -9.41997e-06 0.00963072 1.69739e-07 272.463 
-0.33 -0.27 -1.40027 1.54689 0.00970829 0.00953103 -6.37491e-06 0.0096244 1.69674e-07 272.389 
-0.35 -0.37 -1.08562 0.774562 0.00971363 0.00955525 -7.89503e-06 0.00964044 1.69803e-07 272.636 
-0.33 -0.37 -1.2517 0.957961 0.00971578 0.00956635 -4.73653e-06 0.00963987 1.69782e-07 272.653 
-0.33 -0.35 -1.22402 1.05944 0.00972279 0.00955603 -1.09506e-05 0.00964287 1.69894e-07 272.557 
-0.33 -0.31 -1.14488 1.2234 0.0097133 0.00954026 5.38904e-06 0.00964226 1.69928e-07 272.486 
-0.31 -0.49 -0.886531 -0.135518 0.00969339 0.00960031 1.04653e-05 0.00965498 1.6988e-07 272.923 
-0.29 -0.49 -0.891472 0.124434 0.00969727 0.00960486 2.87967e-05 0.00965867 1.70085e-07 272.698 
-0.27 -0.49 -0.99958 0.00851067 0.00968749 0.00960944 2.73878e-05 0.00965755 1.69925e-07 272.923 
-0.31 -0.47 -0.928153 0.0486237 0.00970288 0.00958113 1.44004e-05 0.00964982 1.69821e-07 272.872 
-0.29 -0.47 -1.09171 0.0861316 0.00970458 0.00960339 2.82375e-05 0.00965994 1.7002e-07 272.838 
-0.27 -0.47 -1.13923 0.087167 0.00970723 0.00960704 2.95194e-05 0.0096528 1.69951e-07 272.747 
-0.31 -0.45 -1.28098 0.0782808 0.00969983 0.009571 1.87897e-05 0.00963704 1.69846e-07 272.471 
-0.29 -0.45 -1.33418 0.169732 0.00970596 0.00959214 1.61127e-05 0.00965173 1.69911e-07 272.781 
-0.27 -0.45 -1.15357 0.211431 0.00972829 0.00961509 1.92726e-05 0.00966686 1.70103e-07 272.901 
-0.31 -0.43 -1.14341 0.322666 0.00971249 0.00957567 1.15823e-05 0.00965113 1.70046e-07 272.547 
-0.29 -0.43 -1.15034 0.0257245 0.00971573 0.0095957 9.46902e-06 0.00965698 1.70017e-07 272.759 
-0.27 -0.43 -1.40752 0.209152 0.00971384 0.00960301 1.03008e-05 0.00966179 1.70023e-07 272.885 
-0.31 -0.41 -1.17405 0.418912 0.00971595 0.00957836 6.06949e-06 0.00965512 1.6992e-07 272.862 
-0.25 -0.43 -1.52581 0.327606 0.00972747 0.0096146 2.94943e-05 0.00967157 1.70329e-07 272.671 
-0.29 -0.41 -1.51274 0.22636 0.00971977 0.00960071 6.48094e-06 0.00966732 1.70121e-07 272.884 
-0.27 -0.41 -1.62421 0.226814 0.00971348 0.00958839 1.22337e-05 0.00965623 1.70025e-07 272.725 
-0.31 -0.39 -1.34602 0.501919 0.00972668 0.00957515 5.84811e-06 0.00964966 1.69868e-07 272.791 
-0.25 -0.41 -1.7064 0.583781 0.009713 0.00960822 1.79835e-05 0.00966779 1.70142e-07 272.863 
-0.29 -0.39 -1.39948 0.497937 0.00972709 0.00959621 1.06289e-05 0.00965991 1.70103e-07 272.704 
-0.27 -0.39 -1.65584 0.279111 0.00972575 0.00957989 1.04863e-05 0.00965964 1.70134e-07 272.646 
-0.31 -0.37 -1.37077 0.502115 0.00971293 0.00956355 -3.42896e-06 0.00964348 1.69889e-07 272.583 
-0.25 -0.39 -1.59582 0.669651 0.00972697 0.0096124 1.43803e-05 0.00967828 1.70292e-07 272.919 
-0.29 -0.37 -1.48933 0.825751 0.0097139 0.00958961 9.71304e-06 0.00964921 1.698e-07 272.889 
-0.27 -0.37 -1.81084 0.53959 0.00972389 0.00958293 1.54667e-05 0.00965494 1.7e-07 272.729 
-0.31 -0.35 -1.35824 0.857941 0.00972242 0.00956081 8.94651e-07 0.00964718 1.69995e-07 272.517 
-0.29 -0.35 -1.64794 0.771818 0.00972353 0.00958638 4.1501e-06 0.00966447 1.7003e-07 272.949 
-0.27 -0.35 -1.47192 0.725667 0.009722 0.0095821 4.59121e-06 0.00966295 1.70173e-07 272.678 
-0.31 -0.33 -1.31062 1.09075 0.00970597 0.00955423 9.3146e-06 0.00964857 1.7003e-07 272.501 
-0.29 -0.33 -1.26497 0.91232 0.00970771 0.00958011 -1.28401e-06 0.0096522 1.70038e-07 272.591 
-0.27 -0.33 -1.74126 0.919456 0.00970725 0.0095809 1.04739e-05 0.0096514 1.6989e-07 272.805 
-0.31 -0.31 -1.07821 1.12654 0.00972338 0.009563 -1.47371e-06 0.00965337 1.70055e-07 272.596 
-0.29 -0.31 -1.43405 1.24838 0.00972852 0.00957523 5.68557e-06 0.00965537 1.69987e-07 272.762 
-0.27 -0.31 -1.46237 1.20267 0.00972724 0.00957226 2.81028e-06 0.00965477 1.70054e-07 272.637 
-0.31 -0.29 -1.40148 1.32516 0.00972068 0.00956709 -1.70834e-06 0.00964833 1.70156e-07 272.292 
-0.25 -0.31 -1.72392 1.04494 0.00973182 0.00957812 1.66967e-05 0.00965768 1.70065e-07 272.702 
-0.29 -0.29 -1.53849 1.49156 0.00971451 0.00957158 4.98351e-06 0.00964457 1.69869e-07 272.646 
-0.27 -0.29 -1.81085 1.40626 0.00971589 0.00956948 2.22714e-06 0.00964219 1.6985e-07 272.609 
-0.31 -0.27 -1.6459 1.69662 0.00971864 0.009561 -1.68841e-07 0.00963938 1.70046e-07 272.216 
-0.25 -0.29 -1.78263 1.08457 0.00972946 0.00957609 2.16243e-06 0.00965653 1.7007e-07 272.662 
-0.29 -0.27 -1.54722 1.50068 0.00972854 0.00956982 -1.33482e-06 0.00965757 1.70111e-07 272.625 
-0.27 -0.27 -1.57139 1.30257 0.0097371 0.00957947 -6.76641e-07 0.00966262 1.69982e-07 272.975 
-0.25 -0.27 -1.57709 1.29203 0.00972957 0.0095758 -1.62006e-06 0.00965346 1.70007e-07 272.676 
-0.33 -0.45 -0.959528 0.331748 0.00970468 0.00958778 7.34482e-06 0.00965085 1.69988e-07 272.633 
-0.33 -0.41 -0.975278 0.555964 0.00971542 0.00956536 1.54285e-05 0.009645 1.6993e-07 272.56 
-0.25 -0.49 -1.08045 -0.0131586 0.00969507 0.00961485 3.89283e-05 0.00965794 1.69936e-07 272.916 
-0.23 -0.49 -1.18858 0.195811 0.00970898 0.0096114 3.25558e-05 0.00966476 1.70116e-07 272.82 
-0.25 -0.47 -1.21129 0.127772 0.00971307 0.00961737 1.97375e-05 0.0096645 1.70183e-07 272.705 
-0.23 -0.47 -1.31655 0.399312 0.00971788 0.0096182 2.3419e-05 0.00966977 1.70373e-07 272.549 
-0.25 -0.45 -1.20469 0.181047 0.009727 0.00962151 2.14337e-05 0.00967632 1.70401e-07 272.689 
-0.23 -0.45 -1.52094 0.427311 0.00972157 0.00960763 2.85578e-05 0.00966967 1.70306e-07 272.655 
-0.25 -0.37 -1.79904 0.240861 0.00972547 0.00959978 1.24369e-05 0.00967037 1.7016e-07 272.908 
-0.25 -0.35 -1.8406 0.476133 0.00972291 0.00958531 1.11783e-05 0.00966455 1.70076e-07 272.878 
-0.25 -0.33 -2.07734 0.817468 0.00971006 0.00958348 1.37181e-05 0.00965434 1.7002e-07 272.68 
-0.49 -0.25 0.000939673 1.62817 0.00968963 0.00954879 -3.78066e-05 0.00962086 1.69592e-07 272.42 
-0.47 -0.25 -0.084352 1.56225 0.00969379 0.00955066 -3.6305e-05 0.00962427 1.69707e-07 272.332 
-0.45 -0.25 -0.396818 1.52226 0.00970124 0.00953428 -3.72248e-05 0.00963508 1.6981e-07 272.472 
-0.49 -0.23 0.00280138 1.80855 0.00968162 0.00954742 -4.73988e-05 0.00962016 1.6961e-07 272.371 
-0.47 -0.23 -0.218687 1.59255 0.00969012 0.00954678 -4.50024e-05 0.00963271 1.69847e-07 272.347 
-0.45 -0.23 -0.475525 1.8223 0.0096916 0.00952594 -3.54004e-05 0.00962015 1.69668e-07 272.278 
-0.49 -0.21 -0.106401 1.78492 0.00969353 0.0095543 -4.83597e-05 0.00963386 1.6981e-07 272.437 
-0.43 -0.23 -0.536917 1.76469 0.00969975 0.00953884 -3.44236e-05 0.00962343 1.69484e-07 272.666 
-0.47 -0.21 -0.180556 1.89782 0.00969863 0.00953938 -4.34614e-05 0.00963644 1.69946e-07 272.292 
-0.41 -0.23 -0.772892 1.99071 0.00970761 0.00952718 -2.76442e-05 0.00962293 1.69705e-07 272.297 
-0.45 -0.21 -0.376029 2.12815 0.00970069 0.00952642 -4.47272e-05 0.00961047 1.69651e-07 272.03 
-0.49 -0.19 -0.113641 2.01028 0.0096946 0.00953913 -6.07396e-05 0.00962234 1.69798e-07 272.131 
-0.39 -0.23 -0.902571 1.90902 0.00970695 0.0095265 -2.92943e-05 0.00961755 1.69667e-07 272.206 
-0.43 -0.21 -0.555553 1.79371 0.00970882 0.00952735 -3.88238e-05 0.00961517 1.69544e-07 272.336 
-0.47 -0.19 -0.269713 1.91668 0.00970346 0.00953711 -5.33658e-05 0.00963173 1.69915e-07 272.209 
-0.41 -0.21 -0.744424 2.00534 0.00970459 0.0095269 -2.98548e-05 0.00961538 1.69543e-07 272.343 
-0.45 -0.19 -0.269649 2.18135 0.00970761 0.00953201 -4.67461e-05 0.00962283 1.69573e-07 272.507 
-0.49 -0.17 -0.0336182 2.17752 0.00969861 0.00953079 -6.09118e-05 0.00961599 1.69685e-07 272.133 
-0.39 -0.21 -0.730094 2.09732 0.00971355 0.00952594 -3.44761e-05 0.00962006 1.69675e-07 272.264 
-0.43 -0.19 -0.495756 2.03647 0.00970287 0.00951325 -4.20974e-05 0.00960969 1.69366e-07 272.467 
-0.47 -0.17 -0.195159 2.05901 0.00969953 0.00952614 -5.67505e-05 0.00962038 1.69758e-07 272.14 
-0.41 -0.19 -0.5863 2.24035 0.00971791 0.00952523 -3.65301e-05 0.00962637 1.69747e-07 272.326 
-0.45 -0.17 -0.345394 2.26397 0.00970832 0.00952545 -5.14331e-05 0.00962855 1.69644e-07 272.554 
-0.49 -0.15 -0.0986064 2.37783 0.00968572 0.00951331 -6.66689e-05 0.0096104 1.69616e-07 272.085 
-0.39 -0.19 -1.10769 2.44389 0.00972153 0.00951892 -2.82077e-05 0.00961739 1.69678e-07 272.184 
-0.43 -0.17 -0.570316 2.32032 0.00971116 0.00951274 -4.55692e-05 0.00962022 1.6965e-07 272.309 
-0.47 -0.15 -0.283941 2.18285 0.0096903 0.00952399 -5.96988e-05 0.00961617 1.69564e-07 272.332 
-0.41 -0.17 -1.02345 2.42591 0.0097097 0.00951991 -3.75952e-05 0.00962188 1.6965e-07 272.355 
-0.45 -0.15 -0.499219 2.40956 0.00968987 0.00951412 -5.10765e-05 0.00960915 1.6945e-07 272.317 
-0.39 -0.17 -1.06295 2.68487 0.00970075 0.00950604 -2.92353e-05 0.00961424 1.69517e-07 272.353 
-0.43 -0.15 -0.469227 2.50916 0.0097003 0.00950081 -4.65692e-05 0.00960248 1.69316e-07 272.343 
-0.41 -0.15 -0.580296 2.7587 0.00969773 0.00951694 -3.2974e-05 0.00961246 1.6957e-07 272.218 
-0.39 -0.15 -0.92339 2.91347 0.00969494 0.00950368 -3.62947e-05 0.0095984 1.69386e-07 272.114 
-0.49 -0.27 -0.126149 1.65514 0.00970662 0.00955428 -4.09711e-05 0.00963611 1.69717e-07 272.651 
-0.43 -0.25 -0.475405 1.69117 0.0097034 0.00954951 -2.63011e-05 0.00963286 1.69688e-07 272.606 
-0.41 -0.25 -0.453307 1.78967 0.00970249 0.00952613 -1.95848e-05 0.00962222 1.69702e-07 272.281 
-0.39 -0.25 -0.672577 1.55543 0.00970855 0.0095212 -2.50483e-05 0.00962177 1.6953e-07 272.546 
-0.33 -0.25 -1.40789 1.88195 0.00972375 0.00953734 -8.48337e-06 0.00963908 1.69754e-07 272.675 
-0.37 -0.25 -0.736485 2.08963 0.00971676 0.0095263 -2.03413e-05 0.00962579 1.69763e-07 272.284 
-0.35 -0.25 -1.09065 1.8384 0.00971744 0.00952504 -1.06408e-05 0.00963201 1.69756e-07 272.472 
-0.37 -0.23 -1.0341 2.03749 0.00970715 0.00951808 -2.63704e-05 0.00961985 1.69486e-07 272.562 
-0.35 -0.23 -0.969965 2.02659 0.00971497 0.00951746 -1.42104e-05 0.00961938 1.6961e-07 272.35 
-0.37 -0.21 -0.924396 2.01486 0.0097168 0.0095107 -2.47191e-05 0.00961931 1.69459e-07 272.59 
-0.35 -0.21 -1.12477 2.32952 0.00972266 0.00951613 -2.66852e-05 0.00962307 1.69348e-07 272.875 
-0.37 -0.19 -1.3857 2.17183 0.00971413 0.00950966 -2.31501e-05 0.00961286 1.69444e-07 272.431 
-0.35 -0.19 -1.33598 2.33293 0.00971445 0.00951769 -2.89181e-05 0.0096095 1.69451e-07 272.325 
-0.37 -0.17 -1.21383 2.36787 0.00970897 0.00951232 -2.50804e-05 0.00961392 1.69498e-07 272.374 
-0.35 -0.17 -1.33783 2.28438 0.00970563 0.00951549 -2.43243e-05 0.009617 1.69688e-07 272.157 
-0.33 -0.17 -1.46589 2.41331 0.00970321 0.00951525 -2.38076e-05 0.00961697 1.69671e-07 272.183 
-0.37 -0.15 -1.10164 2.43143 0.00969348 0.00950671 -2.57573e-05 0.00961398 1.69616e-07 272.187 
-0.35 -0.15 -1.22077 2.43695 0.0096945 0.00952078 -2.2917e-05 0.00961204 1.69529e-07 272.271 
-0.33 -0.15 -1.43086 2.54598 0.00969984 0.00950608 -2.5431e-05 0.00961828 1.69502e-07 272.492 
-0.37 -0.13 -1.04877 2.66924 0.00970172 0.00950369 -3.56381e-05 0.00960611 1.69282e-07 272.5 
-0.35 -0.13 -1.2555 2.48784 0.00971603 0.00951253 -3.28821e-05 0.00961592 1.69476e-07 272.467 
-0.33 -0.13 -1.30414 2.92494 0.00970774 0.00951279 -2.05536e-05 0.00961506 1.69345e-07 272.653 
-0.37 -0.11 -1.0333 2.94411 0.00969083 0.00949936 -4.33134e-05 0.0095973 1.69139e-07 272.481 
-0.35 -0.11 -1.25969 2.65335 0.0096857 0.00950058 -3.08988e-05 0.00959575 1.6916e-07 272.403 
-0.33 -0.11 -1.56584 3.20877 0.00969355 0.00950049 -2.05662e-05 0.00960481 1.69251e-07 272.513 
-0.35 -0.09 -1.0367 2.94229 0.00967717 0.00950026 -3.30205e-05 0.00958338 1.69162e-07 272.049 
-0.49 -0.13 -0.0572838 2.43391 0.00966498 0.00952395 -8.04564e-05 0.00960259 1.69269e-07 272.422 
-0.47 -0.13 -0.333407 2.53849 0.00966949 0.00950816 -6.95193e-05 0.00959529 1.6946e-07 271.907 
-0.45 -0.13 -0.429665 2.39812 0.00968284 0.00951022 -5.74117e-05 0.00959841 1.692e-07 272.414 
-0.49 -0.11 0.0126367 2.64565 0.00966214 0.00951517 -8.19145e-05 0.00958481 1.69011e-07 272.332 
-0.43 -0.13 -0.682647 2.68285 0.00968989 0.00949559 -5.1996e-05 0.00959671 1.69457e-07 271.953 
-0.47 -0.11 -0.0833917 2.59704 0.00966535 0.00950595 -7.12304e-05 0.0095794 1.69033e-07 272.143 
-0.41 -0.13 -0.883854 2.91266 0.00968875 0.00950258 -4.00532e-05 0.0096042 1.69379e-07 272.29 
-0.45 -0.11 -0.451169 2.76309 0.00966331 0.00950347 -6.9038e-05 0.00959653 1.69201e-07 272.359 
-0.49 -0.09 0.0350801 2.60952 0.00965859 0.00950693 -7.46846e-05 0.00958883 1.69138e-07 272.242 
-0.39 -0.13 -0.921802 3.16567 0.00969094 0.00950162 -3.1903e-05 0.00959587 1.69191e-07 272.356 
-0.43 -0.11 -0.802418 3.01273 0.00965559 0.00947594 -5.4484e-05 0.0095696 1.68912e-07 272.06 
-0.47 -0.09 -0.210093 2.82912 0.0096565 0.00949872 -7.6037e-05 0.00957975 1.68912e-07 272.347 
-0.41 -0.11 -0.974506 2.87081 0.00967462 0.00949571 -5.07915e-05 0.00959082 1.69185e-07 272.223 
-0.45 -0.09 -0.335415 3.08404 0.00965303 0.00949229 -6.78845e-05 0.00957945 1.68887e-07 272.379 
-0.39 -0.11 -0.855974 3.19148 0.00969024 0.00950605 -3.91016e-05 0.0095953 1.69173e-07 272.369 
-0.43 -0.09 -0.567007 3.22943 0.00966212 0.0094747 -5.93137e-05 0.00957596 1.69024e-07 272.06 
-0.41 -0.09 -0.619385 3.00688 0.00966024 0.00948645 -5.18979e-05 0.00957706 1.68872e-07 272.335 
-0.39 -0.09 -0.834814 3.2173 0.00967399 0.00950026 -5.72249e-05 0.00958722 1.68971e-07 272.465 
-0.37 -0.09 -0.858183 3.01486 0.00967524 0.00948706 -3.41118e-05 0.00958313 1.69024e-07 272.264 
-0.35 -0.03 -1.3075 3.45004 0.00965355 0.00948981 -4.32764e-05 0.00959 1.692e-07 272.176 
-0.37 -0.07 -1.23732 3.29316 0.00965873 0.00948247 -4.34324e-05 0.00957603 1.68894e-07 272.271 
-0.41 -0.05 -0.69283 3.68509 0.00965298 0.00948099 -5.72541e-05 0.00956517 1.68691e-07 272.289 
-0.45 -0.03 -0.40295 3.6216 0.00962717 0.00946111 -8.9972e-05 0.00955922 1.68753e-07 272.02 
-0.35 -0.07 -1.45886 3.18226 0.00967248 0.00950417 -3.56255e-05 0.00958987 1.69085e-07 272.357 
-0.39 -0.05 -1.01402 3.41385 0.00965126 0.00946731 -5.24393e-05 0.00956422 1.68765e-07 272.144 
-0.43 -0.03 -0.460896 3.75163 0.00963844 0.00946039 -7.16357e-05 0.00956288 1.68781e-07 272.08 
-0.33 -0.07 -1.64986 3.57464 0.00968407 0.00949621 -3.51776e-05 0.00959259 1.6912e-07 272.377 
-0.37 -0.05 -1.23454 3.48249 0.00965589 0.00948092 -4.92353e-05 0.00958632 1.68969e-07 272.443 
-0.41 -0.03 -0.683064 3.80796 0.00964231 0.00946805 -6.74211e-05 0.00955924 1.68734e-07 272.052 
-0.35 -0.05 -1.48285 3.40758 0.00966463 0.00949604 -5.11874e-05 0.00958587 1.68915e-07 272.517 
-0.39 -0.03 -0.933925 3.76877 0.00964729 0.00946423 -5.72926e-05 0.00956548 1.68845e-07 272.05 
-0.33 -0.05 -1.4636 3.45251 0.00966219 0.00949305 -4.05899e-05 0.00958882 1.68971e-07 272.511 
-0.37 -0.03 -1.17429 3.79934 0.0096576 0.00948257 -5.7127e-05 0.00958089 1.6894e-07 272.336 
-0.33 -0.03 -1.56325 3.51451 0.00966363 0.00949402 -4.81236e-05 0.00958911 1.69141e-07 272.244 
-0.49 -0.07 -0.0876426 2.69173 0.00962995 0.00949664 -8.43859e-05 0.00957597 1.68747e-07 272.506 
-0.47 -0.07 -0.0855075 3.03068 0.00964895 0.00949955 -7.91364e-05 0.00957787 1.69065e-07 272.048 
-0.45 -0.07 -0.38398 3.27135 0.00965724 0.00947703 -6.78202e-05 0.00957331 1.68901e-07 272.182 
-0.49 -0.05 -0.127478 2.91573 0.00962931 0.00948232 -0.000100885 0.00956421 1.68645e-07 272.337 
-0.43 -0.07 -0.371149 3.2807 0.00965968 0.00947542 -5.64062e-05 0.00957073 1.69048e-07 271.873 
-0.47 -0.05 -0.119876 3.09877 0.00962775 0.00948595 -8.63361e-05 0.00956897 1.68835e-07 272.166 
-0.41 -0.07 -0.787999 3.31398 0.00966295 0.00948963 -6.80908e-05 0.00958204 1.69057e-07 272.179 
-0.45 -0.05 -0.178334 3.40709 0.00963732 0.00946629 -7.56177e-05 0.0095642 1.68665e-07 272.303 
-0.49 -0.03 0.00104804 2.97678 0.00960735 0.00946632 -0.000105548 0.00954948 1.68387e-07 272.334 
-0.39 -0.07 -1.02462 3.29068 0.00965745 0.00947637 -5.02063e-05 0.00956994 1.68929e-07 272.041 
-0.43 -0.05 -0.579616 3.53833 0.00964817 0.00947737 -7.01755e-05 0.00957424 1.68979e-07 272.084 
-0.47 -0.03 -0.263592 3.24333 0.00961601 0.00947884 -9.57707e-05 0.00955819 1.68705e-07 272.068 
-0.27 -0.07 -1.73983 2.68018 0.00968475 0.00954583 -3.19336e-05 0.00962166 1.6964e-07 272.366 
-0.31 -0.05 -1.64193 3.50097 0.00967789 0.00952333 -4.3389e-05 0.0096117 1.69417e-07 272.442 
-0.27 -0.09 -2.03602 2.67157 0.00969987 0.00955534 -2.08797e-05 0.0096306 1.69948e-07 272.125 
-0.31 -0.07 -1.36538 3.22576 0.00967545 0.00952563 -3.12336e-05 0.00960851 1.69344e-07 272.469 
-0.29 -0.07 -1.78618 3.04966 0.00967574 0.00953943 -4.02623e-05 0.00961953 1.69569e-07 272.419 
-0.25 -0.07 -1.73313 2.69307 0.00969145 0.00956557 -1.76511e-05 0.00963175 1.70017e-07 272.047 
-0.29 -0.05 -1.65425 3.12404 0.00968358 0.00953993 -2.87318e-05 0.00961814 1.69625e-07 272.29 
-0.27 -0.05 -1.92956 2.82394 0.00966988 0.00953271 -3.63552e-05 0.00960935 1.69523e-07 272.205 
-0.31 -0.03 -1.69336 3.58855 0.00966575 0.00951804 -4.17812e-05 0.00960641 1.69458e-07 272.226 
-0.25 -0.05 -2.20119 2.75097 0.0096768 0.0095591 -2.61708e-05 0.0096186 1.69457e-07 272.572 
-0.29 -0.03 -1.87986 3.33224 0.00966668 0.00953911 -4.35816e-05 0.00961266 1.69474e-07 272.377 
-0.27 -0.03 -1.96508 2.98479 0.00969005 0.00952954 -3.40876e-05 0.00961521 1.69767e-07 271.98 
-0.25 -0.03 -2.05376 2.90546 0.00969226 0.00956362 -3.75273e-05 0.00962743 1.69659e-07 272.498 
-0.31 -0.25 -1.5319 1.66461 0.0097189 0.00955143 -1.03606e-05 0.00963933 1.69799e-07 272.611 
-0.29 -0.25 -1.72011 1.41037 0.00972572 0.00957177 -1.3583e-05 0.00964479 1.6984e-07 272.699 
-0.27 -0.25 -1.69813 1.57512 0.00973886 0.0095708 -5.83299e-07 0.00965931 1.69998e-07 272.855 
-0.29 -0.11 -1.86789 2.57417 0.00971666 0.00954955 -2.52938e-05 0.00963122 1.69848e-07 272.303 
-0.33 -0.09 -1.28361 3.54483 0.00967493 0.00949728 -3.77294e-05 0.00959409 1.69207e-07 272.28 
-0.27 -0.11 -1.88977 2.42512 0.00971601 0.00955547 -1.75189e-05 0.00964631 1.69904e-07 272.639 
-0.31 -0.09 -1.62311 3.14491 0.0096811 0.00952406 -3.00475e-05 0.00961727 1.69573e-07 272.348 
-0.29 -0.09 -1.76004 2.72689 0.00969407 0.0095455 -2.93312e-05 0.0096328 1.69739e-07 272.522 
-0.33 -0.23 -1.13369 2.0009 0.00972397 0.00953744 -1.14391e-05 0.00963323 1.69695e-07 272.604 
-0.31 -0.23 -1.47794 1.90981 0.00973782 0.00955749 -1.62222e-05 0.00964268 1.69973e-07 272.426 
-0.29 -0.23 -1.77242 1.72843 0.00974498 0.00957173 -1.29258e-05 0.00965703 1.70007e-07 272.777 
-0.33 -0.21 -1.19033 2.02781 0.00972704 0.0095339 -2.22545e-05 0.00963258 1.697e-07 272.578 
-0.27 -0.23 -2.03979 1.55728 0.00973501 0.00955911 -9.93776e-06 0.00965555 1.70088e-07 272.604 
-0.31 -0.21 -1.16426 2.34474 0.00972345 0.00955542 -1.68511e-05 0.00964556 1.6987e-07 272.672 
-0.29 -0.21 -1.43523 1.86675 0.009713 0.00955896 -8.48754e-06 0.00964317 1.69828e-07 272.672 
-0.33 -0.19 -1.32902 2.13784 0.00971426 0.00952222 -2.35775e-05 0.00962405 1.69463e-07 272.717 
-0.27 -0.21 -1.72315 1.9796 0.00970326 0.00956047 -1.17947e-06 0.00963983 1.69777e-07 272.66 
-0.31 -0.19 -1.57845 2.28554 0.00971692 0.00954728 -1.27387e-05 0.00964395 1.69828e-07 272.694 
-0.25 -0.21 -2.07023 1.64517 0.00970916 0.00956415 9.93957e-07 0.00963643 1.69628e-07 272.803 
-0.29 -0.19 -1.6743 2.08303 0.00970776 0.00954959 -3.24e-06 0.00963536 1.69652e-07 272.734 
-0.27 -0.19 -1.85425 2.21648 0.00971993 0.00956755 -4.43838e-06 0.00964174 1.69904e-07 272.51 
-0.31 -0.17 -1.61642 2.24673 0.00970251 0.00953669 -1.24723e-05 0.00962888 1.69809e-07 272.298 
-0.25 -0.19 -1.98867 2.07286 0.00972527 0.00955429 -1.08098e-05 0.00964905 1.69957e-07 272.632 
-0.29 -0.17 -1.64715 2.51215 0.00972714 0.00955719 -5.74588e-06 0.0096436 1.69977e-07 272.445 
-0.27 -0.17 -1.8216 2.08575 0.00972537 0.00956735 -1.74665e-05 0.0096471 1.70034e-07 272.453 
-0.31 -0.15 -1.67548 2.47363 0.00971127 0.00953913 -2.5516e-05 0.00962695 1.69649e-07 272.5 
-0.25 -0.17 -1.66227 2.1801 0.00971862 0.00955844 -1.08246e-05 0.00964119 1.69955e-07 272.412 
-0.29 -0.15 -1.81683 2.47731 0.00970275 0.00953588 -1.74703e-05 0.00962359 1.69695e-07 272.332 
-0.27 -0.15 -1.90114 2.18429 0.00970831 0.00957775 -6.31103e-06 0.00964746 1.70036e-07 272.46 
-0.31 -0.13 -1.64791 2.66197 0.00969626 0.00952447 -1.63504e-05 0.0096173 1.69406e-07 272.619 
-0.25 -0.15 -1.97529 2.18511 0.00970776 0.00955914 -1.10408e-05 0.00964335 1.69806e-07 272.713 
-0.29 -0.13 -1.90197 2.49097 0.00969708 0.0095389 -1.6977e-05 0.0096207 1.69604e-07 272.396 
-0.27 -0.13 -1.93349 2.36292 0.00970856 0.00956694 -2.00405e-05 0.00964846 1.69878e-07 272.741 
-0.31 -0.11 -1.7522 2.87319 0.00971117 0.00952766 -2.27338e-05 0.00962608 1.6962e-07 272.522 