ITEM: TIMESTEP
874500
ITEM: NUMBER OF CELLS
2500
ITEM: BOX BOUNDS ss ss pp
-0.5 0.5
-0.5 0.5
-0.5 0.5
ITEM: CELLS xc yc f_U[*] f_V[*] f_Tau[1] f_Tau[2] f_Tau[3] f_Press[*] f_Mrho[*] f_Ttra[*] 
-0.49 -0.49 0.0231731 0.07366 0.00966848 0.00954775 4.85001e-07 0.00960112 1.69376e-07 272.208 
-0.47 -0.49 -0.205436 0.167526 0.00965229 0.00956248 -5.46892e-06 0.00961515 1.69158e-07 272.956 
-0.45 -0.49 -0.568176 0.297913 0.00966297 0.00956055 3.55067e-06 0.00961962 1.69334e-07 272.8 
-0.49 -0.47 -0.167172 0.263859 0.00964393 0.00954585 2.91212e-06 0.00959606 1.69155e-07 272.42 
-0.43 -0.49 -0.821093 0.018471 0.00965694 0.00955827 -2.82993e-06 0.00960953 1.69406e-07 272.398 
-0.47 -0.47 -0.338805 0.413112 0.00966255 0.00956904 -6.37045e-07 0.00962201 1.69352e-07 272.839 
-0.41 -0.49 -0.804857 0.0489714 0.00966745 0.00954146 -9.30495e-06 0.00961025 1.69252e-07 272.666 
-0.45 -0.47 -0.435313 0.432863 0.00966502 0.00955738 -1.41056e-05 0.00962047 1.69388e-07 272.737 
-0.49 -0.45 -0.00729156 0.442722 0.00967762 0.00954398 -2.87627e-05 0.00961026 1.693e-07 272.59 
-0.39 -0.49 -0.863727 -0.114491 0.00968976 0.00960394 1.47292e-05 0.00964986 1.69801e-07 272.905 
-0.43 -0.47 -0.301376 -0.0139617 0.00968022 0.00956874 -9.70055e-06 0.00962379 1.69422e-07 272.777 
-0.47 -0.45 -0.122416 0.52724 0.00969211 0.00956651 -9.19111e-06 0.00963566 1.69542e-07 272.919 
-0.37 -0.49 -0.734114 0.0563609 0.00968152 0.00958175 2.00302e-05 0.00963078 1.69498e-07 272.852 
-0.41 -0.47 -0.494956 0.0548875 0.00967886 0.00953992 -6.50732e-06 0.00962406 1.69397e-07 272.825 
-0.45 -0.45 -0.19306 0.331237 0.00968718 0.00956859 -1.33754e-05 0.0096413 1.69621e-07 272.952 
-0.49 -0.43 -0.119277 0.477662 0.00969664 0.0095542 -1.20318e-05 0.00962309 1.695e-07 272.63 
-0.35 -0.49 -0.776561 0.118034 0.00968356 0.00957332 1.18416e-05 0.00962247 1.6927e-07 272.984 
-0.39 -0.47 -0.453568 0.1214 0.0096802 0.00958296 -3.79394e-06 0.00962862 1.69612e-07 272.608 
-0.43 -0.45 -0.37681 0.170287 0.00969016 0.00955391 -1.29329e-05 0.00962556 1.69527e-07 272.657 
-0.47 -0.43 -0.0889224 0.495145 0.00968555 0.00955631 -2.58053e-05 0.00962973 1.6963e-07 272.609 
-0.37 -0.47 -0.589848 0.0903932 0.00969756 0.0095735 1.14868e-05 0.009637 1.69773e-07 272.586 
-0.41 -0.45 -0.489828 0.102058 0.00970031 0.0095518 -4.70854e-06 0.00963262 1.69593e-07 272.751 
-0.45 -0.43 0.00508564 0.399471 0.00970752 0.00957989 -7.31218e-06 0.00965121 1.69985e-07 272.648 
-0.49 -0.41 -0.0190977 0.606658 0.00969194 0.00957525 -8.58813e-06 0.00964211 1.69832e-07 272.636 
-0.35 -0.47 -0.90291 0.113421 0.0097044 0.00958629 1.49701e-05 0.00964991 1.69895e-07 272.755 
-0.39 -0.45 -0.499384 0.0641311 0.00969251 0.00956353 -7.43845e-06 0.00962784 1.69771e-07 272.329 
-0.43 -0.43 -0.274788 0.483855 0.00969716 0.0095497 -7.80232e-06 0.00962323 1.69617e-07 272.448 
-0.47 -0.41 -0.207989 0.546654 0.00969889 0.00955775 -2.29768e-05 0.00964194 1.69726e-07 272.801 
-0.37 -0.45 -0.69006 0.351464 0.00969303 0.0095676 5.24008e-06 0.00962895 1.69602e-07 272.633 
-0.41 -0.43 -0.398301 0.118302 0.00969229 0.00955191 -1.29124e-05 0.00962369 1.69308e-07 272.956 
-0.45 -0.41 -0.420813 0.469772 0.00969255 0.00955535 -8.17986e-06 0.00963509 1.69837e-07 272.43 
-0.49 -0.39 -0.142324 0.793388 0.00970374 0.00957369 -2.08132e-05 0.00965057 1.69895e-07 272.774 
-0.35 -0.45 -0.734578 0.111044 0.00969405 0.00957469 9.11997e-06 0.00963987 1.6992e-07 272.432 
-0.39 -0.43 -0.992833 0.466963 0.00969275 0.00954386 4.10823e-07 0.00961179 1.69479e-07 272.344 
-0.43 -0.41 -0.486543 0.423401 0.00969517 0.00956684 -3.63835e-06 0.00963149 1.69539e-07 272.806 
-0.47 -0.39 -0.285437 0.560897 0.00969641 0.00954896 -1.56015e-05 0.0096324 1.69811e-07 272.396 
-0.37 -0.43 -1.16899 0.260677 0.00969691 0.00956798 -1.088e-07 0.00963326 1.69687e-07 272.618 
-0.41 -0.41 -0.473982 0.626939 0.00969664 0.00954411 -1.32746e-05 0.00962462 1.69602e-07 272.51 
-0.45 -0.39 -0.319724 0.916835 0.00969502 0.0095554 -1.65937e-05 0.00963636 1.69758e-07 272.592 
-0.35 -0.43 -1.0012 0.26391 0.00971377 0.00957797 -3.70593e-06 0.00964696 1.69646e-07 273.072 
-0.39 -0.41 -0.544854 0.517277 0.00969708 0.00953873 -1.6343e-05 0.00962364 1.69484e-07 272.673 
-0.43 -0.39 -0.509843 0.476278 0.00971878 0.00956077 -2.1063e-05 0.00963989 1.69572e-07 272.991 
-0.37 -0.41 -0.60437 0.459211 0.00971878 0.00957465 -1.4258e-05 0.00965448 1.69992e-07 272.728 
-0.41 -0.39 -0.591543 0.560494 0.00972701 0.00954929 -8.89516e-06 0.00964844 1.69985e-07 272.569 
-0.35 -0.41 -0.883467 0.335712 0.0097138 0.00955704 6.5138e-06 0.0096479 1.69783e-07 272.879 
-0.39 -0.39 -0.578971 0.594915 0.00972049 0.00955561 -6.84811e-06 0.00964969 1.69789e-07 272.92 
-0.37 -0.39 -0.920431 0.692954 0.00969319 0.0095553 -1.2019e-05 0.00964087 1.7002e-07 272.299 
-0.41 -0.37 -0.652008 0.471782 0.00970824 0.00955457 -1.09852e-05 0.00964352 1.69786e-07 272.749 
-0.35 -0.39 -1.05972 0.577035 0.00969235 0.00954196 -2.07617e-06 0.00963179 1.69663e-07 272.615 
-0.33 -0.39 -1.22361 0.648548 0.00972605 0.0095767 -4.89337e-07 0.00964963 1.69857e-07 272.809 
-0.33 -0.49 -1.00196 -0.00903219 0.00969133 0.00958204 1.32576e-05 0.00964248 1.69634e-07 272.965 
-0.33 -0.47 -0.785401 0.116666 0.00969347 0.00958726 8.98618e-06 0.00965784 1.69923e-07 272.935 
-0.33 -0.43 -1.1927 0.385936 0.00970402 0.00957482 1.67051e-05 0.00964407 1.69805e-07 272.735 
-0.49 -0.37 -0.25063 1.20193 0.00970643 0.00958208 -1.4356e-05 0.00965504 1.69812e-07 273.033 
-0.47 -0.37 -0.420074 0.575182 0.00971173 0.00955434 -1.28084e-05 0.00964116 1.6964e-07 272.918 
-0.45 -0.37 -0.660783 0.839751 0.00971512 0.0095686 -3.07129e-05 0.00964515 1.69629e-07 273.047 
-0.49 -0.35 0.131205 1.34004 0.00971774 0.00957418 -2.16704e-05 0.00964926 1.69749e-07 272.972 
-0.43 -0.37 -0.620092 0.66869 0.00971169 0.00953854 -2.20654e-05 0.00963849 1.69613e-07 272.886 
-0.47 -0.35 0.170675 0.682294 0.00972001 0.00956287 -2.593e-05 0.00964392 1.697e-07 272.899 
-0.45 -0.35 -0.0420834 1.02084 0.00972031 0.00956988 -2.23136e-05 0.00965202 1.70076e-07 272.525 
-0.49 -0.33 0.119634 0.99497 0.00968777 0.00957098 -3.06511e-05 0.00963036 1.6941e-07 272.981 
-0.39 -0.37 -0.691078 0.90835 0.00971155 0.00954958 -9.79111e-06 0.00964101 1.69735e-07 272.76 
-0.43 -0.35 -0.316098 0.94972 0.00970294 0.00953904 -1.58336e-05 0.00963308 1.6962e-07 272.721 
-0.47 -0.33 0.0207134 1.2486 0.00969601 0.00955975 -2.33712e-05 0.00964094 1.69633e-07 272.923 
-0.37 -0.37 -0.805729 0.757759 0.0097186 0.00956071 -1.47429e-06 0.00964808 1.69817e-07 272.829 
-0.41 -0.35 -0.845949 0.562712 0.0097069 0.00954181 -1.86819e-05 0.00964722 1.69817e-07 272.805 
-0.45 -0.33 -0.148628 1.19383 0.00969454 0.00956255 -1.37188e-05 0.00964038 1.69764e-07 272.697 
-0.49 -0.31 -0.0869673 1.00703 0.00971153 0.00958152 -1.87521e-05 0.00965018 1.6986e-07 272.819 
-0.39 -0.35 -1.04722 0.968269 0.00971659 0.00955029 -1.36931e-05 0.0096517 1.69963e-07 272.697 
-0.43 -0.33 -0.365507 1.0445 0.00970107 0.00955139 -2.06719e-05 0.00963794 1.6977e-07 272.617 
-0.47 -0.31 -0.363485 1.49047 0.00970403 0.00955557 -1.99706e-05 0.00964643 1.69854e-07 272.723 
-0.37 -0.35 -0.796669 0.71813 0.00972765 0.00955488 -5.12683e-06 0.00965118 1.69813e-07 272.923 
-0.41 -0.33 -0.623395 1.1814 0.00970643 0.00953285 -2.42433e-05 0.00962889 1.69713e-07 272.453 
-0.45 -0.31 -0.457568 1.2915 0.00971159 0.00956632 -2.69134e-05 0.0096457 1.69742e-07 272.883 
-0.49 -0.29 -0.10627 1.3823 0.00971764 0.00957451 -3.02785e-05 0.00964908 1.69821e-07 272.85 
-0.35 -0.35 -1.01799 1.04009 0.00972638 0.00955574 -1.06816e-05 0.00964115 1.69818e-07 272.632 
-0.39 -0.33 -0.985606 0.827728 0.00972112 0.00955935 -1.80839e-05 0.00965252 1.70033e-07 272.607 
-0.43 -0.31 -0.0919159 1.11789 0.00972857 0.00956216 -3.3236e-05 0.00965313 1.70112e-07 272.498 
-0.47 -0.29 -0.0412858 1.54379 0.00972839 0.00955705 -3.11349e-05 0.00965437 1.69875e-07 272.913 
-0.37 -0.33 -0.854081 0.788784 0.00971915 0.00953792 -2.22926e-05 0.00964575 1.69795e-07 272.798 
-0.41 -0.31 -0.413275 1.64196 0.00972849 0.00953026 -1.81813e-05 0.00964344 1.70261e-07 271.986 
-0.45 -0.29 -0.0463591 1.00696 0.00973122 0.00956777 -2.75029e-05 0.00966796 1.69893e-07 273.268 
-0.35 -0.33 -0.962054 1.32196 0.00972938 0.00957121 -7.3501e-06 0.00966155 1.70019e-07 272.884 
-0.39 -0.31 -0.58321 1.04972 0.00971601 0.00954586 -2.6168e-05 0.00965025 1.69983e-07 272.624 
-0.43 -0.29 -0.191879 1.18952 0.00971882 0.00955463 -2.45671e-05 0.00965392 1.70118e-07 272.511 
-0.47 -0.27 -0.176524 1.29433 0.00970384 0.00956426 -3.45827e-05 0.00964144 1.69623e-07 272.952 
-0.33 -0.33 -1.1295 1.24155 0.00971532 0.00953391 -4.8784e-07 0.0096346 1.69889e-07 272.332 
-0.37 -0.31 -1.25902 0.940939 0.00970592 0.00953998 -1.56301e-05 0.00963666 1.69753e-07 272.609 
-0.41 -0.29 -0.26251 1.6478 0.00971984 0.00953542 -3.16941e-05 0.00965014 1.69872e-07 272.798 
-0.45 -0.27 0.0534513 1.24652 0.00971355 0.00956293 -3.2932e-05 0.00964916 1.70023e-07 272.529 
-0.35 -0.31 -1.44963 1.47712 0.00971722 0.00954764 -9.90987e-06 0.00964766 1.69992e-07 272.536 
-0.39 -0.29 -0.481903 1.71231 0.00972662 0.00953347 -1.38848e-05 0.00964151 1.70048e-07 272.273 
-0.43 -0.27 -0.324608 1.56282 0.00971365 0.00956052 -2.19278e-05 0.00964105 1.6992e-07 272.465 
-0.37 -0.29 -0.859338 1.39958 0.00972959 0.00954452 -1.58725e-05 0.00964844 1.69906e-07 272.695 
-0.41 -0.27 -0.522162 1.7913 0.00970749 0.00953249 -2.89102e-05 0.00963699 1.69883e-07 272.408 
-0.35 -0.29 -0.790913 1.29838 0.00970812 0.00952852 -1.06288e-05 0.00963127 1.69631e-07 272.653 
-0.39 -0.27 -0.543826 1.75023 0.00970374 0.00952269 -1.33093e-05 0.00961868 1.69476e-07 272.544 
-0.33 -0.29 -1.00404 1.15453 0.0097188 0.00953948 -8.60727e-06 0.00963688 1.69862e-07 272.44 
-0.37 -0.27 -0.654996 1.54792 0.00970755 0.00954113 -9.02091e-06 0.00962961 1.69654e-07 272.569 
-0.35 -0.27 -0.986319 1.46982 0.00971394 0.00953021 -9.43255e-06 0.00962749 1.69841e-07 272.208 
-0.33 -0.27 -1.32585 1.49814 0.00971247 0.00954195 -1.01732e-05 0.00962915 1.69769e-07 272.37 
-0.35 -0.37 -1.0247 0.692027 0.0097186 0.00954314 -1.68844e-05 0.00963734 1.69713e-07 272.692 
-0.33 -0.37 -1.28724 0.935116 0.00972139 0.00956779 -9.68229e-06 0.00964379 1.69952e-07 272.491 
-0.33 -0.35 -1.32372 1.11246 0.00972553 0.00955056 -1.65551e-05 0.00964415 1.69837e-07 272.685 
-0.33 -0.31 -1.09111 1.16218 0.00971772 0.00952823 3.97431e-06 0.00963908 1.70014e-07 272.259 
-0.31 -0.49 -0.867768 -0.25136 0.00970015 0.00960853 6.25971e-06 0.00966173 1.69976e-07 272.959 
-0.29 -0.49 -0.944878 0.220601 0.00969264 0.00961302 4.04721e-05 0.00965672 1.70078e-07 272.655 
-0.27 -0.49 -1.02096 -0.104799 0.00967132 0.00958948 3.12459e-05 0.00964431 1.69949e-07 272.51 
-0.31 -0.47 -1.05096 -0.0911366 0.00968813 0.00958193 1.20125e-05 0.00964415 1.69765e-07 272.801 
-0.29 -0.47 -1.148 0.295563 0.00970028 0.00960225 3.66996e-05 0.00966187 1.70016e-07 272.899 
-0.27 -0.47 -1.10302 -0.0628775 0.00970944 0.00960067 3.56948e-05 0.00965252 1.70111e-07 272.483 
-0.31 -0.45 -1.28535 0.11988 0.00970381 0.0095801 2.35633e-05 0.00964528 1.70048e-07 272.379 
-0.29 -0.45 -1.39669 0.1714 0.0097024 0.00958407 1.82573e-05 0.00965136 1.69956e-07 272.698 
-0.27 -0.45 -1.27108 0.0545406 0.00973556 0.00961512 1.71976e-05 0.00967397 1.70241e-07 272.879 
-0.31 -0.43 -1.12807 0.350205 0.00970948 0.00957687 1.15643e-05 0.0096528 1.70164e-07 272.405 
-0.29 -0.43 -1.12236 0.0107043 0.0097252 0.00959417 9.02186e-06 0.00965934 1.7017e-07 272.58 
-0.27 -0.43 -1.44182 0.112316 0.00971687 0.00960769 9.02413e-06 0.00966844 1.70268e-07 272.679 
-0.31 -0.41 -1.15733 0.229349 0.00971093 0.00958166 5.36843e-06 0.00965719 1.70048e-07 272.716 
-0.25 -0.43 -1.68666 -0.0353931 0.00972186 0.00960471 2.93115e-05 0.00967048 1.70388e-07 272.546 
-0.29 -0.41 -1.40071 0.283069 0.00971037 0.00959465 -4.43804e-06 0.00966563 1.70101e-07 272.869 
-0.27 -0.41 -1.72603 0.222243 0.00970923 0.00959011 1.20499e-05 0.00965536 1.70071e-07 272.627 
-0.31 -0.39 -1.34926 0.377683 0.00973929 0.00958564 7.79663e-07 0.00966469 1.70137e-07 272.784 
-0.25 -0.41 -1.91567 0.529253 0.00970921 0.00959801 2.4462e-05 0.00966815 1.70217e-07 272.754 
-0.29 -0.39 -1.52809 0.637851 0.00973966 0.00959189 1.05711e-05 0.00966783 1.70373e-07 272.494 
-0.27 -0.39 -1.66565 0.337422 0.00973756 0.00956895 1.08449e-05 0.00966303 1.70101e-07 272.795 
-0.31 -0.37 -1.38312 0.425179 0.00971927 0.0095732 1.55326e-06 0.00965533 1.70148e-07 272.502 
-0.25 -0.39 -1.76152 0.654758 0.00973846 0.00960534 1.39326e-05 0.00968208 1.70332e-07 272.962 
-0.29 -0.37 -1.52321 0.874842 0.00971644 0.00958419 1.07688e-05 0.00965166 1.6986e-07 272.861 
-0.27 -0.37 -1.7067 0.557282 0.00972364 0.0095763 1.56231e-05 0.0096518 1.70077e-07 272.516 
-0.31 -0.35 -1.57685 0.83913 0.00972674 0.009563 1.12374e-06 0.00965238 1.70086e-07 272.519 
-0.29 -0.35 -1.85847 0.632198 0.00972792 0.00958038 9.55471e-06 0.0096672 1.70069e-07 272.964 
-0.27 -0.35 -1.66924 0.708521 0.00972873 0.00958808 4.04466e-06 0.00966493 1.70192e-07 272.703 
-0.31 -0.33 -1.27801 1.12259 0.00970183 0.00955546 9.7911e-06 0.0096457 1.70024e-07 272.429 
-0.29 -0.33 -1.2864 0.718345 0.00970984 0.00957733 7.98138e-07 0.00965614 1.70156e-07 272.512 
-0.27 -0.33 -1.80548 1.01006 0.00971335 0.00958722 1.00938e-05 0.00965887 1.69964e-07 272.898 
-0.31 -0.31 -0.970189 1.16481 0.00972931 0.00956168 1.36413e-06 0.00965617 1.70221e-07 272.41 
-0.29 -0.31 -1.45664 1.17902 0.00973306 0.0095801 2.09495e-07 0.00966219 1.70124e-07 272.734 
-0.27 -0.31 -1.61182 1.23095 0.00972408 0.00957162 -1.59904e-06 0.0096569 1.70202e-07 272.46 
-0.31 -0.29 -1.27255 1.45528 0.00972055 0.00955873 -9.61497e-06 0.00964764 1.70064e-07 272.419 
-0.25 -0.31 -1.7772 1.15454 0.00973561 0.00957925 1.82296e-05 0.00966336 1.70227e-07 272.602 
-0.29 -0.29 -1.53484 1.55699 0.00972291 0.00957152 3.91948e-06 0.00964985 1.70019e-07 272.554 
-0.27 -0.29 -1.83478 1.42068 0.00972346 0.00957094 1.28183e-05 0.00965154 1.70102e-07 272.47 
-0.31 -0.27 -1.58838 1.67831 0.00971409 0.00955506 -2.57335e-06 0.00963296 1.69864e-07 272.326 
-0.25 -0.29 -1.91392 1.10693 0.00972215 0.0095708 4.38864e-06 0.00965323 1.70041e-07 272.615 
-0.29 -0.27 -1.35681 1.74002 0.00971039 0.00955655 -2.07304e-06 0.00964533 1.69932e-07 272.566 
-0.27 -0.27 -1.48548 1.34304 0.00972522 0.00957368 -1.65869e-06 0.00965675 1.69886e-07 272.962 
-0.25 -0.27 -1.46537 1.38712 0.00972765 0.00956864 1.0065e-06 0.00964905 1.70014e-07 272.54 
-0.33 -0.45 -0.995064 0.354332 0.0097099 0.00958999 5.77018e-06 0.00966015 1.70228e-07 272.51 
-0.33 -0.41 -0.86681 0.695899 0.00971296 0.00957145 1.99348e-05 0.00964884 1.70098e-07 272.399 
-0.25 -0.49 -1.06053 -0.0236947 0.00968336 0.00961062 3.39274e-05 0.00965117 1.69829e-07 272.897 
-0.23 -0.49 -1.17573 0.191141 0.00970106 0.00960565 3.13378e-05 0.00965455 1.69841e-07 272.973 
-0.25 -0.47 -1.20076 0.0656421 0.00971328 0.00961653 1.78311e-05 0.00965813 1.70032e-07 272.767 
-0.23 -0.47 -1.26354 0.341678 0.0097199 0.00961856 1.55856e-05 0.00967227 1.70242e-07 272.83 
-0.25 -0.45 -1.04283 0.0146177 0.00973936 0.00961791 2.08928e-05 0.00968353 1.70326e-07 273.013 
-0.23 -0.45 -1.37215 0.609898 0.00973062 0.00960533 2.80678e-05 0.0096728 1.70154e-07 272.986 
-0.25 -0.37 -1.70113 0.36448 0.00972629 0.00958797 1.09779e-05 0.0096659 1.70082e-07 272.907 
-0.25 -0.35 -1.98526 0.648814 0.00972995 0.00957092 8.54633e-06 0.00966166 1.6999e-07 272.935 
-0.25 -0.33 -2.1333 0.894527 0.00971301 0.00957816 6.24629e-06 0.00965638 1.70013e-07 272.749 
-0.49 -0.25 -0.130259 1.51112 0.00969162 0.00955003 -4.37676e-05 0.00963114 1.69686e-07 272.56 
-0.47 -0.25 -0.155365 1.59761 0.00970055 0.00956442 -4.39356e-05 0.00963585 1.69894e-07 272.36 
-0.45 -0.25 -0.390194 1.24409 0.0097053 0.00954478 -3.85325e-05 0.00964302 1.6991e-07 272.537 
-0.49 -0.23 0.0383029 1.7412 0.00968081 0.00955113 -5.25446e-05 0.00961645 1.69523e-07 272.406 
-0.47 -0.23 -0.102277 1.46801 0.00968845 0.00955717 -5.08487e-05 0.0096399 1.69961e-07 272.366 
-0.45 -0.23 -0.646951 1.71266 0.00968775 0.0095333 -3.32434e-05 0.00962502 1.6977e-07 272.252 
-0.49 -0.21 -0.104426 1.64858 0.00969268 0.00957031 -5.9149e-05 0.00964577 1.70101e-07 272.309 
-0.43 -0.23 -0.656099 1.75587 0.00969809 0.00954071 -3.81731e-05 0.0096261 1.6953e-07 272.668 
-0.47 -0.21 -0.212629 1.80948 0.00969387 0.00953751 -4.99557e-05 0.00963669 1.7001e-07 272.197 
-0.41 -0.23 -0.718347 1.97199 0.0097082 0.00952494 -2.66856e-05 0.00962785 1.69742e-07 272.377 
-0.45 -0.21 -0.195761 2.06561 0.00969742 0.00953543 -5.15083e-05 0.00961296 1.69625e-07 272.144 
-0.49 -0.19 -0.068452 1.92237 0.00969049 0.00954862 -6.6451e-05 0.00962756 1.69876e-07 272.153 
-0.39 -0.23 -0.863747 1.67605 0.00971248 0.00953957 -3.1288e-05 0.00962854 1.69632e-07 272.573 
-0.43 -0.21 -0.552667 1.7943 0.00970735 0.00952819 -3.41444e-05 0.00962221 1.69673e-07 272.328 
-0.47 -0.19 -0.173796 1.76898 0.00969448 0.00953356 -5.47601e-05 0.00963325 1.69961e-07 272.178 
-0.41 -0.21 -0.620493 1.95989 0.00970509 0.0095296 -3.27056e-05 0.00962286 1.69733e-07 272.25 
-0.45 -0.19 -0.265482 2.10611 0.00969983 0.00954081 -4.90696e-05 0.00962374 1.69588e-07 272.508 
-0.49 -0.17 -0.157152 2.10745 0.00968795 0.00952792 -6.7078e-05 0.00961305 1.69649e-07 272.108 
-0.39 -0.21 -0.773558 2.04667 0.00971259 0.00953051 -3.57374e-05 0.00962466 1.69803e-07 272.189 
-0.43 -0.19 -0.53119 1.97914 0.00969452 0.0095113 -4.81778e-05 0.0096049 1.69354e-07 272.35 
-0.47 -0.17 -0.331174 1.8959 0.00969372 0.00953597 -6.27317e-05 0.0096286 1.69917e-07 272.118 
-0.41 -0.19 -0.588858 2.30619 0.00970922 0.00953289 -3.88577e-05 0.00962818 1.69575e-07 272.655 
-0.45 -0.17 -0.294431 2.17706 0.00970197 0.00952593 -5.77251e-05 0.0096274 1.69726e-07 272.39 
-0.49 -0.15 0.111918 2.29091 0.00969203 0.00951094 -7.24585e-05 0.00961964 1.69801e-07 272.05 
-0.39 -0.19 -1.09968 2.34702 0.00972229 0.00952131 -3.27986e-05 0.00962077 1.69635e-07 272.349 
-0.43 -0.17 -0.444324 2.21069 0.00971248 0.00950745 -4.40967e-05 0.00962521 1.69751e-07 272.287 
-0.47 -0.15 -0.0801593 1.90328 0.00969036 0.00952861 -6.14665e-05 0.00962391 1.69676e-07 272.371 
-0.41 -0.17 -0.987737 2.56819 0.00971521 0.00953248 -4.32209e-05 0.00962764 1.69711e-07 272.42 
-0.45 -0.15 -0.378919 2.33979 0.00968692 0.00951833 -5.5273e-05 0.00960762 1.69412e-07 272.334 
-0.39 -0.17 -1.03571 2.59997 0.00969474 0.00950365 -3.95479e-05 0.0096112 1.69268e-07 272.667 
-0.43 -0.15 -0.568449 2.61424 0.00969478 0.00949128 -5.76358e-05 0.00960074 1.69278e-07 272.354 
-0.41 -0.15 -0.67324 2.61899 0.00969278 0.00952322 -3.38761e-05 0.00961983 1.69657e-07 272.286 
-0.39 -0.15 -0.937583 2.98831 0.00968604 0.00951191 -2.96603e-05 0.00960175 1.69361e-07 272.25 
-0.49 -0.27 -0.0271015 1.51129 0.00969979 0.00955603 -4.36129e-05 0.0096339 1.69738e-07 272.554 
-0.43 -0.25 -0.531661 1.76511 0.00970911 0.00955785 -2.12318e-05 0.00964037 1.6971e-07 272.783 
-0.41 -0.25 -0.478471 1.87397 0.00970455 0.00951992 -1.53151e-05 0.00962083 1.69656e-07 272.316 
-0.39 -0.25 -0.650707 1.35437 0.00971222 0.00952879 -2.23637e-05 0.00962634 1.69535e-07 272.667 
-0.33 -0.25 -1.37371 1.91075 0.0097181 0.00954343 -1.11247e-05 0.00963798 1.69845e-07 272.498 
-0.37 -0.25 -0.563787 2.23976 0.00972691 0.00953471 -2.10186e-05 0.00963641 1.69858e-07 272.433 
-0.35 -0.25 -1.11875 1.75407 0.0097214 0.00952592 -5.87785e-06 0.00963821 1.69779e-07 272.611 
-0.37 -0.23 -1.04344 2.26169 0.00971009 0.00951694 -2.32471e-05 0.00962375 1.69447e-07 272.734 
-0.35 -0.23 -0.871593 1.94862 0.00972639 0.00951981 -9.43507e-06 0.00962654 1.69725e-07 272.366 
-0.37 -0.21 -1.09502 2.16477 0.00971765 0.00951216 -2.50224e-05 0.00962001 1.69394e-07 272.714 
-0.35 -0.21 -1.15835 2.18354 0.00972498 0.0095209 -3.11021e-05 0.00962786 1.69351e-07 273.006 
-0.37 -0.19 -1.33728 2.3127 0.00971676 0.00950764 -2.78688e-05 0.00960515 1.69393e-07 272.295 
-0.35 -0.19 -1.30396 2.1134 0.00970989 0.00952049 -2.24767e-05 0.00960364 1.69447e-07 272.165 
-0.37 -0.17 -1.31591 2.37045 0.00971014 0.00950748 -1.95665e-05 0.00961514 1.69481e-07 272.436 
-0.35 -0.17 -1.3621 2.2324 0.00970133 0.00951074 -1.79721e-05 0.00960929 1.69545e-07 272.168 
-0.33 -0.17 -1.56114 2.36974 0.00969542 0.00952091 -1.70902e-05 0.00961692 1.6978e-07 272.008 
-0.37 -0.15 -0.967872 2.44586 0.00966879 0.00948331 -2.79164e-05 0.00958697 1.69258e-07 271.996 
-0.35 -0.15 -1.18319 2.4944 0.00968753 0.00952375 -2.23493e-05 0.00960442 1.69442e-07 272.194 
-0.33 -0.15 -1.50094 2.49304 0.00970345 0.00951762 -2.62775e-05 0.00962244 1.69541e-07 272.546 
-0.37 -0.13 -1.22406 2.64317 0.00970556 0.00948782 -3.87347e-05 0.00959567 1.6922e-07 272.304 
-0.35 -0.13 -1.17395 2.4359 0.00971379 0.00951783 -3.5387e-05 0.00961268 1.69319e-07 272.626 
-0.33 -0.13 -1.15243 3.05642 0.0097046 0.00951696 -2.45647e-05 0.00961374 1.6921e-07 272.833 
-0.37 -0.11 -1.02053 2.95041 0.00969277 0.00948624 -4.76439e-05 0.00959093 1.6891e-07 272.669 
-0.35 -0.11 -1.31792 2.52507 0.00968726 0.00950289 -3.73021e-05 0.00959633 1.69036e-07 272.62 
-0.33 -0.11 -1.63821 3.21684 0.00968478 0.00949995 -1.40476e-05 0.00960523 1.69106e-07 272.758 
-0.35 -0.09 -1.10424 2.92238 0.00965482 0.00949562 -3.19938e-05 0.00956989 1.68875e-07 272.128 
-0.49 -0.13 0.090428 2.1611 0.00966991 0.00952383 -7.94835e-05 0.00960704 1.69356e-07 272.408 
-0.47 -0.13 -0.114836 2.44204 0.00967822 0.00951039 -6.90862e-05 0.00960078 1.6971e-07 271.662 
-0.45 -0.13 -0.485743 2.37403 0.00969239 0.00951752 -5.99175e-05 0.00960942 1.69314e-07 272.542 
-0.49 -0.11 -0.0297039 2.32068 0.00965969 0.00951257 -8.1329e-05 0.00958694 1.69024e-07 272.371 
-0.43 -0.13 -0.632405 2.86798 0.00968807 0.00949505 -5.10476e-05 0.00960143 1.69457e-07 272.087 
-0.47 -0.11 -0.153476 2.56609 0.00966311 0.00951058 -7.60748e-05 0.00957915 1.69116e-07 272.003 
-0.41 -0.13 -1.00412 2.89482 0.00967795 0.00949903 -4.26485e-05 0.00959912 1.69251e-07 272.351 
-0.45 -0.11 -0.562418 2.79875 0.00965585 0.009501 -6.29429e-05 0.00960367 1.69388e-07 272.26 
-0.49 -0.09 -0.0635802 2.46268 0.00964152 0.00950592 -7.58525e-05 0.0095823 1.69238e-07 271.896 
-0.39 -0.13 -1.00982 3.11145 0.00968545 0.00951007 -3.05694e-05 0.00959732 1.69107e-07 272.533 
-0.43 -0.11 -0.969595 3.22923 0.00964977 0.00947859 -5.18471e-05 0.00957388 1.68934e-07 272.146 
-0.47 -0.09 -0.429789 2.88416 0.00964797 0.00949652 -7.74876e-05 0.00958011 1.69088e-07 272.074 
-0.41 -0.11 -0.956764 2.82633 0.00967418 0.0094984 -5.06093e-05 0.00959866 1.69177e-07 272.458 
-0.45 -0.09 -0.469848 3.134 0.00964706 0.00948993 -6.60133e-05 0.00957903 1.68931e-07 272.297 
-0.39 -0.11 -0.935831 3.16902 0.00969491 0.00951522 -4.71471e-05 0.00960256 1.69271e-07 272.417 
-0.43 -0.09 -0.666867 3.34829 0.00966265 0.00947882 -6.09236e-05 0.00957932 1.69093e-07 272.044 
-0.41 -0.09 -0.6835 2.99182 0.00966081 0.00949674 -5.39146e-05 0.00958671 1.68893e-07 272.577 
-0.39 -0.09 -0.913601 3.12494 0.00966862 0.00950639 -5.55337e-05 0.00958474 1.68877e-07 272.547 
-0.37 -0.09 -0.935645 2.8941 0.00966145 0.00947624 -3.02047e-05 0.00957116 1.68845e-07 272.211 
-0.35 -0.03 -1.34632 3.52525 0.00965841 0.00947001 -4.35257e-05 0.00958629 1.69033e-07 272.339 
-0.37 -0.07 -1.18024 3.19874 0.00964682 0.0094778 -4.03419e-05 0.00957041 1.68691e-07 272.438 
-0.41 -0.05 -0.691714 3.74036 0.00963599 0.00948931 -5.27926e-05 0.00956898 1.68776e-07 272.26 
-0.45 -0.03 -0.3983 3.64512 0.00962488 0.00946261 -8.80136e-05 0.00957223 1.68958e-07 272.061 
-0.35 -0.07 -1.41449 3.15106 0.00967146 0.00949383 -3.684e-05 0.00958841 1.68983e-07 272.479 
-0.39 -0.05 -1.00411 3.41899 0.00964239 0.0094677 -4.8909e-05 0.00956739 1.68799e-07 272.179 
-0.43 -0.03 -0.683967 3.6358 0.00963281 0.00945149 -7.33202e-05 0.00955912 1.68696e-07 272.11 
-0.33 -0.07 -1.50616 3.46563 0.00968373 0.00949084 -2.89398e-05 0.00958254 1.68938e-07 272.386 
-0.37 -0.05 -0.973824 3.25951 0.00964636 0.00947903 -4.88323e-05 0.00958216 1.688e-07 272.597 
-0.41 -0.03 -0.84418 3.87156 0.0096403 0.00947565 -6.50694e-05 0.00956617 1.68566e-07 272.52 
-0.35 -0.05 -1.24904 3.42687 0.00965254 0.00948518 -4.64289e-05 0.00957171 1.68622e-07 272.587 
-0.39 -0.03 -0.873115 3.6561 0.00964292 0.00945902 -5.90026e-05 0.00956592 1.68723e-07 272.259 
-0.33 -0.05 -1.38916 3.43819 0.0096494 0.00948711 -3.87352e-05 0.0095776 1.68818e-07 272.439 
-0.37 -0.03 -1.08881 3.5525 0.00966471 0.00948551 -5.82611e-05 0.00958593 1.68914e-07 272.52 
-0.33 -0.03 -1.63657 3.49374 0.00967295 0.0094964 -4.44483e-05 0.00959436 1.69151e-07 272.378 
-0.49 -0.07 -0.125808 2.72869 0.00962607 0.00950965 -8.68473e-05 0.00958459 1.68904e-07 272.498 
-0.47 -0.07 -0.0917392 2.8364 0.00963433 0.00948155 -8.57953e-05 0.00957377 1.6913e-07 271.827 
-0.45 -0.07 -0.31895 3.37004 0.00965411 0.0094817 -7.12062e-05 0.00957953 1.68915e-07 272.338 
-0.49 -0.05 -0.20256 2.94693 0.00963236 0.00949213 -9.59958e-05 0.00957357 1.68895e-07 272.2 
-0.43 -0.07 -0.14177 3.35752 0.00965813 0.00947717 -5.58509e-05 0.00957643 1.69064e-07 272.009 
-0.47 -0.05 -0.192924 2.9756 0.00963032 0.00948369 -8.51118e-05 0.00957341 1.68936e-07 272.129 
-0.41 -0.07 -0.609737 3.31646 0.0096595 0.00949937 -6.76251e-05 0.00958757 1.69071e-07 272.314 
-0.45 -0.05 -0.333079 3.38684 0.00961906 0.00946371 -7.99753e-05 0.00956039 1.68581e-07 272.332 
-0.49 -0.03 0.0346295 3.04779 0.00959639 0.00947349 -0.000101588 0.00954957 1.68501e-07 272.152 
-0.39 -0.07 -0.897157 3.26183 0.00964249 0.00947636 -4.30455e-05 0.00957218 1.68934e-07 272.097 
-0.43 -0.05 -0.59925 3.4619 0.00962873 0.00947196 -6.67005e-05 0.00956901 1.6888e-07 272.094 
-0.47 -0.03 -0.168709 3.15305 0.00960721 0.00947859 -8.82172e-05 0.00955988 1.68925e-07 271.761 
-0.27 -0.07 -1.65228 2.73184 0.00968375 0.00955394 -3.18409e-05 0.00961982 1.69583e-07 272.405 
-0.31 -0.05 -1.62052 3.53938 0.00966967 0.0095205 -4.59919e-05 0.00960407 1.69178e-07 272.609 
-0.27 -0.09 -1.93831 2.66523 0.00969625 0.0095553 -2.14697e-05 0.00962616 1.69761e-07 272.298 
-0.31 -0.07 -1.27023 3.18163 0.00967237 0.00952295 -3.00592e-05 0.00960382 1.69258e-07 272.475 
-0.29 -0.07 -1.96831 2.95094 0.00967599 0.00954368 -3.77135e-05 0.00962002 1.69535e-07 272.487 
-0.25 -0.07 -1.69529 2.64105 0.00968009 0.00956717 -1.73194e-05 0.0096263 1.69695e-07 272.409 
-0.29 -0.05 -1.64698 3.11476 0.00968712 0.00954733 -3.031e-05 0.00962559 1.69601e-07 272.539 
-0.27 -0.05 -1.97401 2.70284 0.00968046 0.00953615 -3.57237e-05 0.0096231 1.69696e-07 272.317 
-0.31 -0.03 -1.70951 3.65691 0.0096731 0.00952165 -4.61076e-05 0.00961048 1.69466e-07 272.328 
-0.25 -0.05 -2.05506 2.86384 0.00969473 0.00956423 -2.96065e-05 0.00962909 1.69496e-07 272.807 
-0.29 -0.03 -1.7104 3.29193 0.00967249 0.00954304 -5.48326e-05 0.00962228 1.69646e-07 272.373 
-0.27 -0.03 -1.85413 2.96815 0.00969621 0.00953428 -3.84148e-05 0.00962549 1.69898e-07 272.06 
-0.25 -0.03 -2.03227 2.98423 0.00970285 0.00956743 -4.25725e-05 0.00963222 1.69745e-07 272.496 
-0.31 -0.25 -1.54242 1.6308 0.00971814 0.00954329 -1.0343e-05 0.00963798 1.69866e-07 272.465 
-0.29 -0.25 -1.61088 1.50652 0.00973103 0.0095631 -1.55609e-05 0.00964543 1.69703e-07 272.938 
-0.27 -0.25 -1.51329 1.58603 0.00974129 0.00956184 -4.39551e-06 0.0096559 1.69945e-07 272.844 
-0.29 -0.11 -1.6714 2.39876 0.00970513 0.00955657 -2.1543e-05 0.00962461 1.69595e-07 272.522 
-0.33 -0.09 -1.26437 3.50557 0.00965325 0.00948894 -3.81331e-05 0.00958009 1.68962e-07 272.277 
-0.27 -0.11 -1.79518 2.26427 0.00970724 0.00955542 -1.29311e-05 0.00963857 1.69867e-07 272.479 
-0.31 -0.09 -1.56383 3.0203 0.00966616 0.00952024 -2.32637e-05 0.00961057 1.69283e-07 272.625 
-0.29 -0.09 -1.5532 2.66094 0.00968381 0.00955409 -2.35657e-05 0.00962976 1.69509e-07 272.806 
-0.33 -0.23 -1.08829 2.01095 0.00973696 0.00954925 -4.98409e-06 0.00964309 1.69911e-07 272.537 
-0.31 -0.23 -1.35253 1.7903 0.00974302 0.00955263 -1.87898e-05 0.00964429 1.70077e-07 272.305 
-0.29 -0.23 -1.67057 1.84057 0.00974713 0.00956053 -1.68374e-05 0.00965974 1.69987e-07 272.885 
-0.33 -0.21 -1.16934 1.95612 0.00972997 0.00953722 -1.84963e-05 0.00963359 1.69738e-07 272.546 
-0.27 -0.23 -1.88454 1.59006 0.00974171 0.0095524 -1.0782e-05 0.00965112 1.70122e-07 272.425 
-0.31 -0.21 -1.36623 2.3357 0.00973188 0.00956389 -9.70205e-06 0.00964755 1.69945e-07 272.608 
-0.29 -0.21 -1.69688 1.82 0.00971146 0.00954397 -7.18821e-06 0.00963906 1.69774e-07 272.643 
-0.33 -0.19 -1.25877 2.09829 0.00970801 0.0095247 -1.58935e-05 0.00961985 1.69516e-07 272.514 
-0.27 -0.21 -1.89338 1.92778 0.00969883 0.00955233 4.77765e-06 0.00963629 1.69899e-07 272.363 
-0.31 -0.19 -1.47866 2.40091 0.00970495 0.00955028 -1.18338e-05 0.00963592 1.6981e-07 272.496 
-0.25 -0.21 -2.05847 1.71176 0.00970033 0.0095662 -2.69797e-06 0.00963063 1.69646e-07 272.61 
-0.29 -0.19 -1.5689 2.05906 0.0097023 0.00954645 7.34859e-06 0.00962935 1.69546e-07 272.733 
-0.27 -0.19 -1.76806 2.1361 0.00971275 0.00955634 -8.27649e-06 0.00963277 1.69803e-07 272.419 
-0.31 -0.17 -1.46036 2.38156 0.00970216 0.00954175 -1.15707e-05 0.00963054 1.69873e-07 272.244 
-0.25 -0.19 -1.90865 1.96269 0.00972165 0.00955886 -7.6276e-06 0.00965199 1.70051e-07 272.564 
-0.29 -0.17 -1.55427 2.36101 0.00972493 0.00954759 -7.29581e-06 0.00964084 1.6994e-07 272.427 
-0.27 -0.17 -1.73294 2.04463 0.0097266 0.009566 -1.48269e-05 0.00965328 1.70114e-07 272.5 
-0.31 -0.15 -1.95879 2.57658 0.00971523 0.00953891 -1.63343e-05 0.00963104 1.69685e-07 272.559 
-0.25 -0.17 -1.71636 2.26143 0.00971953 0.00956209 -1.10682e-05 0.00964668 1.69822e-07 272.781 
-0.29 -0.15 -1.88999 2.3075 0.00970217 0.00953318 -1.8877e-05 0.0096235 1.69578e-07 272.517 
-0.27 -0.15 -1.89529 2.14399 0.00970429 0.00957888 -5.10291e-06 0.0096464 1.6994e-07 272.584 
-0.31 -0.13 -1.4949 2.7746 0.00969073 0.00951952 -1.43944e-05 0.00961428 1.69217e-07 272.837 
-0.25 -0.15 -1.68367 2.16576 0.00969375 0.00955631 -7.55279e-06 0.00964087 1.6977e-07 272.701 
-0.29 -0.13 -1.71142 2.31116 0.00968994 0.00954015 -8.49778e-06 0.0096105 1.69395e-07 272.443 
-0.27 -0.13 -1.76836 2.18802 0.00969874 0.00957247 -1.66636e-05 0.00964836 1.69979e-07 272.576 
-0.31 -0.11 -1.59974 3.03556 0.00969883 0.0095177 -1.32316e-05 0.00961522 1.69429e-07 272.523 