ITEM: TIMESTEP
1081500
ITEM: NUMBER OF CELLS
2500
ITEM: BOX BOUNDS ss ss pp
-0.5 0.5
-0.5 0.5
-0.5 0.5
ITEM: CELLS xc yc f_U[*] f_V[*] f_Tau[1] f_Tau[2] f_Tau[3] f_Press[*] f_Mrho[*] f_Ttra[*] 
-0.49 -0.49 -0.0946421 0.100207 0.00967144 0.00955591 -5.5301e-07 0.00961285 1.69336e-07 272.604 
-0.47 -0.49 -0.230648 0.0647809 0.00966267 0.00955919 -5.78801e-06 0.00961504 1.69363e-07 272.623 
-0.45 -0.49 -0.415515 0.102559 0.00966492 0.00956876 -6.7959e-06 0.0096221 1.69407e-07 272.752 
-0.49 -0.47 -0.129774 0.290746 0.0096654 0.00955589 -9.40067e-07 0.0096139 1.69339e-07 272.629 
-0.43 -0.49 -0.564609 0.0493418 0.00966588 0.00957329 -8.31221e-06 0.00962221 1.69408e-07 272.754 
-0.47 -0.47 -0.365928 0.269003 0.00967726 0.00956714 -3.84005e-06 0.00962636 1.69495e-07 272.732 
-0.41 -0.49 -0.629466 0.0621827 0.00966522 0.00955433 1.63814e-06 0.00961532 1.69203e-07 272.889 
-0.45 -0.47 -0.432882 0.169221 0.00967734 0.00957227 -1.19439e-05 0.0096266 1.69496e-07 272.737 
-0.49 -0.45 -0.0526728 0.538759 0.0096848 0.00955863 -1.39582e-05 0.00962845 1.69612e-07 272.603 
-0.39 -0.49 -0.705653 0.0230617 0.0096718 0.00956746 1.44136e-05 0.00962295 1.69335e-07 272.892 
-0.43 -0.47 -0.385416 0.0664289 0.00967615 0.00956332 -4.47736e-06 0.00962151 1.6938e-07 272.78 
-0.47 -0.45 -0.193467 0.396088 0.00969219 0.00956862 -6.20036e-06 0.00963747 1.69683e-07 272.743 
-0.37 -0.49 -0.674893 0.0379646 0.00967211 0.00957538 1.42379e-05 0.00962373 1.69384e-07 272.836 
-0.41 -0.47 -0.528328 0.138922 0.00967744 0.00954873 6.62669e-07 0.00961852 1.69231e-07 272.935 
-0.45 -0.45 -0.298566 0.183215 0.00968808 0.00957058 -7.33105e-06 0.00963552 1.69583e-07 272.85 
-0.49 -0.43 -0.0252674 0.608253 0.00969402 0.00955819 -8.77243e-06 0.00962806 1.69553e-07 272.686 
-0.35 -0.49 -0.787496 -0.0372838 0.00968362 0.00957536 1.64491e-05 0.00962659 1.69463e-07 272.789 
-0.39 -0.47 -0.55406 0.107854 0.00968305 0.00956456 3.0194e-06 0.00962457 1.69453e-07 272.748 
-0.43 -0.45 -0.523637 0.179366 0.00968683 0.00955603 -3.41309e-06 0.00962559 1.69489e-07 272.719 
-0.47 -0.43 -0.0858447 0.462902 0.00969034 0.00956995 -1.24623e-05 0.00963338 1.69573e-07 272.806 
-0.37 -0.47 -0.722798 0.0741076 0.00969179 0.00956921 8.78483e-06 0.00963402 1.69602e-07 272.777 
-0.41 -0.45 -0.516371 0.194743 0.0096909 0.00955185 -2.29211e-06 0.00962677 1.69474e-07 272.776 
-0.45 -0.43 -0.196399 0.385419 0.00969255 0.00956742 -4.66225e-06 0.00963559 1.69722e-07 272.628 
-0.49 -0.41 -0.0183048 0.675956 0.00968903 0.00956028 -1.06062e-05 0.00963126 1.69654e-07 272.615 
-0.35 -0.47 -0.787617 0.100129 0.00969203 0.00957497 1.55514e-05 0.00964015 1.69793e-07 272.642 
-0.39 -0.45 -0.670941 0.157528 0.00969211 0.00956004 -4.50756e-06 0.00963057 1.69596e-07 272.688 
-0.43 -0.43 -0.259808 0.34087 0.00969255 0.00955447 -6.7501e-06 0.00962728 1.69603e-07 272.584 
-0.47 -0.41 -0.257231 0.604857 0.00969673 0.00956405 -1.33882e-05 0.00964082 1.69723e-07 272.774 
-0.37 -0.45 -0.767317 0.285198 0.00969204 0.00956339 5.54827e-06 0.0096303 1.69664e-07 272.571 
-0.41 -0.43 -0.569016 0.357062 0.00969176 0.00955299 -5.10949e-06 0.00962648 1.69488e-07 272.746 
-0.45 -0.41 -0.319828 0.485306 0.00970021 0.00956827 -3.03153e-06 0.00963598 1.69751e-07 272.592 
-0.49 -0.39 -0.148329 0.836932 0.00969797 0.00956687 -1.54621e-05 0.00963895 1.69772e-07 272.643 
-0.35 -0.45 -0.903879 0.183656 0.00969352 0.00956583 1.00251e-05 0.00963805 1.69741e-07 272.668 
-0.39 -0.43 -0.939458 0.37041 0.00969003 0.00954951 -1.868e-07 0.00962328 1.69566e-07 272.53 
-0.43 -0.41 -0.488492 0.464548 0.00970078 0.00955676 -2.31709e-06 0.00963375 1.69618e-07 272.743 
-0.47 -0.39 -0.194098 0.72958 0.00968969 0.0095496 -1.07473e-05 0.0096239 1.69626e-07 272.452 
-0.37 -0.43 -0.997186 0.255661 0.00969252 0.0095601 3.30334e-06 0.00962954 1.69624e-07 272.615 
-0.41 -0.41 -0.637421 0.692015 0.00970057 0.0095483 -4.29525e-06 0.00962739 1.69609e-07 272.577 
-0.45 -0.39 -0.360619 0.654594 0.00969555 0.00957046 -1.40129e-05 0.00963936 1.69707e-07 272.76 
-0.35 -0.43 -1.01302 0.277426 0.00970342 0.00956339 5.85269e-06 0.00964233 1.69753e-07 272.769 
-0.39 -0.41 -0.66204 0.536019 0.00969634 0.00954836 -3.97284e-06 0.00963181 1.69635e-07 272.661 
-0.43 -0.39 -0.524095 0.683746 0.00971099 0.009552 -1.15554e-05 0.009636 1.69708e-07 272.662 
-0.37 -0.41 -0.777798 0.229466 0.00970372 0.00955815 -4.81202e-06 0.00963893 1.69705e-07 272.75 
-0.41 -0.39 -0.591563 0.677913 0.00971522 0.00954403 -4.28974e-06 0.00963648 1.69754e-07 272.603 
-0.35 -0.41 -0.895888 0.482431 0.00969998 0.00955145 5.19201e-06 0.00963204 1.69628e-07 272.678 
-0.39 -0.39 -0.640838 0.572108 0.00971801 0.00955512 8.15904e-08 0.00964261 1.6975e-07 272.782 
-0.37 -0.39 -1.036 0.570648 0.00971011 0.00955202 2.52301e-06 0.0096409 1.69807e-07 272.642 
-0.41 -0.37 -0.541992 0.769713 0.00970697 0.00954348 -7.63834e-06 0.00963496 1.69754e-07 272.559 
-0.35 -0.39 -1.24889 0.676746 0.00970208 0.00954795 1.6818e-06 0.00963343 1.69648e-07 272.687 
-0.33 -0.39 -1.32606 0.836124 0.00971087 0.00956694 -3.49055e-06 0.00964607 1.69788e-07 272.818 
-0.33 -0.49 -0.856004 0.110753 0.0096856 0.0095764 2.20033e-05 0.00963508 1.69589e-07 272.827 
-0.33 -0.47 -0.887471 0.1386 0.0096935 0.00957961 1.19689e-05 0.00964175 1.69695e-07 272.846 
-0.33 -0.43 -1.18711 0.453036 0.00970255 0.00957016 1.55568e-05 0.00963999 1.69767e-07 272.681 
-0.49 -0.37 -0.015942 0.972348 0.00969785 0.0095631 -1.87552e-05 0.00963661 1.69692e-07 272.705 
-0.47 -0.37 -0.167526 0.89526 0.00971066 0.00955756 -1.4663e-05 0.00964328 1.6973e-07 272.833 
-0.45 -0.37 -0.403937 0.802 0.00971237 0.00956993 -2.21437e-05 0.009644 1.69708e-07 272.888 
-0.49 -0.35 -0.0543842 1.08382 0.00970145 0.00955787 -2.54451e-05 0.00963642 1.69719e-07 272.657 
-0.43 -0.37 -0.496003 0.69236 0.00970734 0.00954018 -1.14586e-05 0.00963131 1.69633e-07 272.651 
-0.47 -0.35 -0.0892034 0.977569 0.00970857 0.00955911 -2.59915e-05 0.00963598 1.69627e-07 272.792 
-0.45 -0.35 -0.303442 1.04962 0.00971235 0.00956106 -1.73513e-05 0.00964249 1.69781e-07 272.728 
-0.49 -0.33 -0.0346245 1.18759 0.00970539 0.0095619 -2.71239e-05 0.00963646 1.69798e-07 272.53 
-0.39 -0.37 -0.748706 0.920567 0.00971088 0.00955077 -1.01667e-06 0.00963617 1.69684e-07 272.705 
-0.43 -0.35 -0.508474 0.828006 0.00970238 0.00953563 -1.12408e-05 0.00962662 1.69538e-07 272.67 
-0.47 -0.33 -0.213365 1.11089 0.00970191 0.00955551 -2.51829e-05 0.00963831 1.69752e-07 272.657 
-0.37 -0.37 -0.88972 0.715755 0.00971032 0.00954066 2.86887e-06 0.00963021 1.69608e-07 272.659 
-0.41 -0.35 -0.734007 0.850394 0.00970507 0.00954369 -7.55964e-06 0.00963142 1.69618e-07 272.677 
-0.45 -0.33 -0.273322 1.13559 0.00969565 0.00954657 -1.31255e-05 0.00962716 1.69656e-07 272.495 
-0.49 -0.31 -0.0368979 1.1506 0.00970063 0.00956144 -2.41418e-05 0.00963728 1.69804e-07 272.544 
-0.39 -0.35 -0.816004 0.983765 0.00971265 0.00954303 -9.10665e-06 0.0096336 1.69651e-07 272.686 
-0.43 -0.33 -0.473645 1.06765 0.00970474 0.0095422 -1.45127e-05 0.00962973 1.69715e-07 272.474 
-0.47 -0.31 -0.133761 1.37925 0.00970181 0.009548 -2.41676e-05 0.00963283 1.69677e-07 272.621 
-0.37 -0.35 -0.821788 0.947962 0.00972359 0.00954277 -2.78956e-06 0.00963739 1.69657e-07 272.784 
-0.41 -0.33 -0.701439 1.10589 0.00971063 0.00953456 -1.50639e-05 0.00962749 1.69588e-07 272.613 
-0.45 -0.31 -0.347321 1.27914 0.00971117 0.00954258 -1.89278e-05 0.00963368 1.69585e-07 272.795 
-0.49 -0.29 -0.0639369 1.38323 0.00969415 0.00955291 -3.32824e-05 0.0096273 1.69709e-07 272.415 
-0.35 -0.35 -1.06349 1.09088 0.00972823 0.0095646 -4.16666e-06 0.00965083 1.69812e-07 272.915 
-0.39 -0.33 -0.934992 0.990972 0.00971569 0.00954816 -1.29244e-05 0.00963882 1.69718e-07 272.725 
-0.43 -0.31 -0.322746 1.22403 0.00971434 0.00954733 -1.76048e-05 0.00963894 1.69715e-07 272.734 
-0.47 -0.29 -0.289513 1.45082 0.00970376 0.00954856 -3.01366e-05 0.00963074 1.69599e-07 272.688 
-0.37 -0.33 -0.925953 1.04912 0.00971498 0.00953938 -1.45516e-05 0.0096348 1.69538e-07 272.902 
-0.41 -0.31 -0.564245 1.35203 0.0097161 0.00953378 -1.74026e-05 0.00963075 1.69764e-07 272.424 
-0.45 -0.29 -0.209079 1.20552 0.00971068 0.00953446 -2.67262e-05 0.00963076 1.69582e-07 272.717 
-0.35 -0.33 -0.963212 1.32895 0.00972408 0.00955748 -6.5763e-06 0.00964576 1.69721e-07 272.918 
-0.39 -0.31 -0.75566 1.23866 0.00971469 0.00954173 -1.59278e-05 0.00963727 1.69671e-07 272.758 
-0.43 -0.29 -0.396678 1.46805 0.00971947 0.0095481 -2.19043e-05 0.00964155 1.69818e-07 272.643 
-0.47 -0.27 -0.128796 1.35471 0.00970004 0.00955066 -3.56741e-05 0.00963179 1.69577e-07 272.754 
-0.33 -0.33 -1.18365 1.14144 0.00972315 0.00955595 6.4989e-07 0.00964912 1.69768e-07 272.937 
-0.37 -0.31 -1.12627 1.08656 0.00972176 0.00954036 -1.56324e-05 0.00964297 1.69812e-07 272.692 
-0.41 -0.29 -0.504576 1.44963 0.00972234 0.00953439 -2.24104e-05 0.00963991 1.69709e-07 272.772 
-0.45 -0.27 -0.181491 1.46014 0.00970373 0.00953266 -3.36936e-05 0.00962568 1.69551e-07 272.623 
-0.35 -0.31 -1.30158 1.42977 0.00971996 0.00954604 -9.91996e-06 0.00964123 1.69785e-07 272.687 
-0.39 -0.29 -0.575758 1.5156 0.0097252 0.00954014 -1.66818e-05 0.00963737 1.69743e-07 272.645 
-0.43 -0.27 -0.443447 1.59942 0.00970279 0.0095411 -2.72299e-05 0.00962349 1.69503e-07 272.638 
-0.37 -0.29 -0.896384 1.4328 0.0097225 0.00953703 -1.3903e-05 0.009634 1.69738e-07 272.558 
-0.41 -0.27 -0.541164 1.54883 0.00970414 0.00953248 -2.30738e-05 0.00962365 1.69587e-07 272.507 
-0.35 -0.29 -0.967207 1.45576 0.00971997 0.00953728 -7.29909e-06 0.00963582 1.6964e-07 272.767 
-0.39 -0.27 -0.684197 1.67315 0.00970663 0.00953393 -1.73039e-05 0.00962539 1.69619e-07 272.506 
-0.33 -0.29 -1.15678 1.33317 0.00972508 0.00954452 -5.74642e-06 0.00964426 1.69866e-07 272.642 
-0.37 -0.27 -0.836615 1.60241 0.00971107 0.00953343 -1.30663e-05 0.00962975 1.69672e-07 272.544 
-0.35 -0.27 -1.17538 1.70168 0.00971794 0.00953623 -1.26044e-05 0.00963218 1.69719e-07 272.537 
-0.33 -0.27 -1.3592 1.5848 0.00971568 0.00954259 -6.79392e-06 0.00963449 1.69855e-07 272.383 
-0.35 -0.37 -1.14675 0.821175 0.00972093 0.00956239 -4.36656e-07 0.00964626 1.69875e-07 272.684 
-0.33 -0.37 -1.33268 1.03648 0.00972063 0.00956226 -1.62288e-06 0.00964932 1.69963e-07 272.629 
-0.33 -0.35 -1.22169 1.03292 0.0097278 0.00955755 -2.74933e-06 0.00964437 1.69807e-07 272.74 
-0.33 -0.31 -1.24766 1.32058 0.00972215 0.00954997 2.64914e-06 0.00964291 1.69774e-07 272.752 
-0.31 -0.49 -0.905909 -0.0347833 0.00968995 0.00959188 1.45e-05 0.00964883 1.69713e-07 273.018 
-0.29 -0.49 -0.934199 0.0194302 0.00969589 0.00960454 2.86591e-05 0.00965569 1.69947e-07 272.835 
-0.27 -0.49 -1.07697 0.0474387 0.00969345 0.00960223 3.21977e-05 0.00965346 1.6997e-07 272.735 
-0.31 -0.47 -0.94884 0.0202377 0.00969855 0.00958434 1.75734e-05 0.00964615 1.69836e-07 272.744 
-0.29 -0.47 -1.1705 0.267201 0.00969659 0.00959554 2.80992e-05 0.00965007 1.69905e-07 272.743 
-0.27 -0.47 -1.27705 0.119057 0.00970132 0.00959941 3.03208e-05 0.00964665 1.69861e-07 272.718 
-0.31 -0.45 -1.26619 0.197426 0.00969214 0.00957209 2.15379e-05 0.00963626 1.69781e-07 272.552 
-0.29 -0.45 -1.38268 0.424816 0.00969728 0.00958968 2.17553e-05 0.00964659 1.69807e-07 272.803 
-0.27 -0.45 -1.35147 0.165293 0.00970808 0.00960167 2.14482e-05 0.00965641 1.699e-07 272.93 
-0.31 -0.43 -1.30206 0.402912 0.00970746 0.00957759 1.66052e-05 0.00965175 1.69964e-07 272.697 
-0.29 -0.43 -1.32904 0.31739 0.00971167 0.00959154 1.66939e-05 0.0096557 1.69962e-07 272.812 
-0.27 -0.43 -1.56953 0.392898 0.00971452 0.00959384 1.73618e-05 0.00965967 1.6996e-07 272.926 
-0.31 -0.41 -1.34813 0.54347 0.00971225 0.00957346 8.76463e-06 0.00964858 1.69869e-07 272.759 
-0.25 -0.43 -1.6346 0.407539 0.00972294 0.00959916 2.15195e-05 0.00966148 1.70193e-07 272.605 
-0.29 -0.41 -1.60467 0.481314 0.00972053 0.00959363 9.12306e-06 0.00966228 1.70094e-07 272.786 
-0.27 -0.41 -1.55438 0.404436 0.00972006 0.00958975 1.53601e-05 0.00965851 1.70023e-07 272.793 
-0.31 -0.39 -1.46485 0.58126 0.00972234 0.00957367 8.84128e-06 0.00965111 1.69911e-07 272.763 
-0.25 -0.41 -1.68107 0.548576 0.0097181 0.00959948 1.85273e-05 0.00966198 1.70113e-07 272.746 
-0.29 -0.39 -1.39945 0.551279 0.00972227 0.00958856 1.01454e-05 0.00965956 1.70009e-07 272.845 
-0.27 -0.39 -1.59101 0.42678 0.00972404 0.00958102 1.21067e-05 0.00965866 1.69983e-07 272.861 
-0.31 -0.37 -1.30464 0.592204 0.0097167 0.00956422 -1.23603e-06 0.00964855 1.69857e-07 272.778 
-0.25 -0.39 -1.67609 0.673365 0.00973284 0.00960703 1.27368e-05 0.00967653 1.70205e-07 273.01 
-0.29 -0.37 -1.50854 0.764894 0.00972331 0.00958451 5.59539e-06 0.00965693 1.69899e-07 272.948 
-0.27 -0.37 -1.74394 0.618689 0.0097273 0.00958366 1.2297e-05 0.00965811 1.70021e-07 272.785 
-0.31 -0.35 -1.43019 0.863399 0.0097269 0.00956293 1.31087e-06 0.00964806 1.69962e-07 272.595 
-0.29 -0.35 -1.62161 0.890978 0.00972323 0.00958069 5.705e-06 0.00965787 1.69945e-07 272.899 
-0.27 -0.35 -1.68769 0.845187 0.00972191 0.0095736 9.45306e-06 0.00965471 1.70019e-07 272.691 
-0.31 -0.33 -1.35339 1.08776 0.00971893 0.00955829 5.37459e-06 0.00964302 1.69788e-07 272.732 
-0.29 -0.33 -1.53976 1.04825 0.00972308 0.00957427 3.295e-06 0.00965217 1.69998e-07 272.653 
-0.27 -0.33 -1.83172 1.03975 0.00972731 0.00957595 8.58583e-06 0.00965489 1.69902e-07 272.885 
-0.31 -0.31 -1.30454 1.20403 0.00972986 0.00956327 -7.25195e-08 0.00965535 1.69946e-07 272.826 
-0.29 -0.31 -1.52338 1.30918 0.00972904 0.00956931 2.76514e-06 0.00965351 1.69827e-07 272.966 
-0.27 -0.31 -1.61407 1.20281 0.00972905 0.00957221 2.04288e-06 0.0096552 1.6998e-07 272.769 
-0.31 -0.29 -1.38907 1.48755 0.00972381 0.00956039 -1.0973e-06 0.00964712 1.70084e-07 272.373 
-0.25 -0.31 -1.79074 1.08305 0.00973351 0.00958854 1.34598e-05 0.00966517 1.70073e-07 272.901 
-0.29 -0.29 -1.51109 1.42161 0.00972632 0.00957114 3.02702e-06 0.00965229 1.69896e-07 272.821 
-0.27 -0.29 -1.67789 1.41224 0.00972524 0.00956811 -8.48836e-07 0.00964769 1.6991e-07 272.668 
-0.31 -0.27 -1.56603 1.5636 0.00972055 0.00955561 -2.7144e-06 0.00964057 1.69987e-07 272.344 
-0.25 -0.29 -1.87083 1.19029 0.00973435 0.00958344 5.08455e-06 0.0096642 1.70124e-07 272.791 
-0.29 -0.27 -1.44907 1.57367 0.00972652 0.00956502 -2.84244e-06 0.00965309 1.70075e-07 272.556 
-0.27 -0.27 -1.70498 1.48568 0.00973461 0.00957509 3.51472e-06 0.00965563 1.70008e-07 272.735 
-0.25 -0.27 -1.72613 1.3487 0.009733 0.00958108 -4.85775e-06 0.00966397 1.7014e-07 272.759 
-0.33 -0.45 -1.02579 0.228558 0.00970083 0.00958434 1.46788e-05 0.00964427 1.69762e-07 272.81 
-0.33 -0.41 -1.15352 0.657643 0.00970659 0.00956988 1.27427e-05 0.00964316 1.69802e-07 272.713 
-0.25 -0.49 -1.23308 0.097893 0.00969534 0.00960123 3.88091e-05 0.00965359 1.69822e-07 272.976 
-0.23 -0.49 -1.31463 0.0213355 0.00969741 0.00960442 3.51214e-05 0.00965404 1.69988e-07 272.723 
-0.25 -0.47 -1.32756 0.230775 0.00970828 0.00959686 3.01838e-05 0.00965244 1.69917e-07 272.792 
-0.23 -0.47 -1.50517 0.134652 0.0097161 0.00961372 3.09559e-05 0.00966542 1.7015e-07 272.784 
-0.25 -0.45 -1.41891 0.306464 0.00971232 0.00959707 2.59193e-05 0.00965913 1.70086e-07 272.709 
-0.23 -0.45 -1.64015 0.348527 0.00972036 0.00961422 2.44248e-05 0.00966999 1.70182e-07 272.861 
-0.25 -0.37 -1.80667 0.657223 0.00972266 0.00959623 1.47967e-05 0.00966398 1.70089e-07 272.841 
-0.25 -0.35 -1.96317 0.759265 0.00972516 0.00959729 1.11643e-05 0.00966765 1.70089e-07 272.945 
-0.25 -0.33 -2.02077 0.947332 0.00972897 0.0095959 1.02254e-05 0.00966764 1.70159e-07 272.833 
-0.49 -0.25 0.016254 1.65171 0.00968634 0.0095392 -4.22286e-05 0.00961341 1.69462e-07 272.419 
-0.47 -0.25 -0.111064 1.55118 0.00969404 0.00954616 -3.98547e-05 0.00962513 1.69645e-07 272.455 
-0.45 -0.25 -0.369772 1.66168 0.00969756 0.00952364 -3.70459e-05 0.0096226 1.69615e-07 272.432 
-0.49 -0.23 0.0245693 1.73544 0.00968342 0.00954108 -4.81213e-05 0.00961689 1.69496e-07 272.461 
-0.47 -0.23 -0.215414 1.66657 0.00969127 0.0095361 -4.47222e-05 0.00962191 1.6963e-07 272.388 
-0.45 -0.23 -0.400132 1.91917 0.0096947 0.00952282 -3.87126e-05 0.00961952 1.69551e-07 272.448 
-0.49 -0.21 -0.1341 1.80345 0.00969145 0.00954149 -5.15532e-05 0.00962032 1.69609e-07 272.377 
-0.43 -0.23 -0.516847 1.81985 0.00969465 0.00952884 -3.61863e-05 0.00962024 1.69343e-07 272.802 
-0.47 -0.21 -0.184839 1.9331 0.00969143 0.00953267 -4.864e-05 0.00962019 1.69567e-07 272.44 
-0.41 -0.23 -0.572396 1.86704 0.00969927 0.00952281 -3.02849e-05 0.00961744 1.69502e-07 272.467 
-0.45 -0.21 -0.34663 2.0485 0.00969406 0.00952031 -4.28404e-05 0.00960846 1.69534e-07 272.162 
-0.49 -0.19 -0.126483 2.03839 0.00968621 0.00953083 -6.04742e-05 0.00961413 1.69538e-07 272.317 
-0.39 -0.23 -0.762284 1.987 0.00970247 0.00952618 -2.6027e-05 0.00962209 1.69622e-07 272.406 
-0.43 -0.21 -0.509522 1.96879 0.00970387 0.00951835 -3.7056e-05 0.00961143 1.69309e-07 272.608 
-0.47 -0.19 -0.256003 2.00487 0.00969462 0.00953078 -5.26387e-05 0.00962337 1.69567e-07 272.531 
-0.41 -0.21 -0.84754 1.9633 0.00969982 0.00951933 -3.05754e-05 0.00961084 1.69299e-07 272.607 
-0.45 -0.19 -0.311952 2.13335 0.00969605 0.00951674 -4.47616e-05 0.00961072 1.69459e-07 272.347 
-0.49 -0.17 -0.0304456 2.16422 0.00968234 0.00952485 -6.22751e-05 0.00960773 1.69487e-07 272.216 
-0.39 -0.21 -0.839583 2.06799 0.00970684 0.00952526 -3.17083e-05 0.00962086 1.69562e-07 272.468 
-0.43 -0.19 -0.478563 2.15837 0.00969214 0.00950815 -4.06175e-05 0.00959876 1.69201e-07 272.422 
-0.47 -0.17 -0.150959 2.2354 0.0096832 0.0095172 -5.58578e-05 0.00960855 1.69456e-07 272.289 
-0.41 -0.19 -0.640295 2.28118 0.00970538 0.00952076 -3.68401e-05 0.00961659 1.69509e-07 272.432 
-0.45 -0.17 -0.413933 2.28245 0.00968996 0.00951086 -5.02909e-05 0.00960929 1.69475e-07 272.28 
-0.49 -0.15 -0.0501308 2.31116 0.00968341 0.00951309 -6.67534e-05 0.0096052 1.69479e-07 272.159 
-0.39 -0.19 -1.05324 2.26837 0.00970721 0.00951534 -3.16491e-05 0.00961224 1.69456e-07 272.395 
-0.43 -0.17 -0.615536 2.35238 0.00970306 0.00951186 -4.8371e-05 0.00961226 1.69549e-07 272.246 
-0.47 -0.15 -0.215549 2.32262 0.00968755 0.00951364 -5.94705e-05 0.00960935 1.69418e-07 272.373 
-0.41 -0.17 -0.862225 2.43674 0.00970235 0.00951269 -4.05338e-05 0.00961132 1.6954e-07 272.234 
-0.45 -0.15 -0.306534 2.50814 0.00969612 0.00951014 -5.73715e-05 0.00961499 1.69488e-07 272.42 
-0.39 -0.17 -0.982002 2.57718 0.00970134 0.00950819 -3.42983e-05 0.00961276 1.69534e-07 272.283 
-0.43 -0.15 -0.434865 2.52384 0.00969114 0.0094941 -4.93076e-05 0.00959778 1.69332e-07 272.184 
-0.41 -0.15 -0.579968 2.65452 0.00968861 0.00951068 -3.73262e-05 0.00960776 1.69456e-07 272.268 
-0.39 -0.15 -0.789177 2.82687 0.00968856 0.00950747 -3.8999e-05 0.00960115 1.69362e-07 272.23 
-0.49 -0.27 -0.15252 1.61125 0.00969876 0.00954473 -4.0355e-05 0.00962304 1.69606e-07 272.459 
-0.43 -0.25 -0.523036 1.71132 0.00970461 0.00953747 -2.79962e-05 0.00962568 1.69624e-07 272.504 
-0.41 -0.25 -0.557636 1.72969 0.00971028 0.00952683 -2.40766e-05 0.00962562 1.69638e-07 272.481 
-0.39 -0.25 -0.833377 1.61968 0.00971484 0.00952837 -2.19118e-05 0.00962863 1.69593e-07 272.638 
-0.33 -0.25 -1.53348 1.94021 0.00972123 0.00954085 -1.07744e-05 0.00963625 1.69781e-07 272.552 
-0.37 -0.25 -0.960428 2.06661 0.00971544 0.00953419 -1.51693e-05 0.00963308 1.69726e-07 272.55 
-0.35 -0.25 -1.07256 1.83554 0.00971345 0.00952767 -1.19748e-05 0.00962897 1.69739e-07 272.414 
-0.37 -0.23 -0.986557 2.01386 0.00971052 0.00952562 -2.212e-05 0.00962759 1.69567e-07 272.651 
-0.35 -0.23 -1.17162 2.18054 0.00971744 0.00952889 -1.35084e-05 0.00962804 1.69682e-07 272.479 
-0.37 -0.21 -0.879334 2.29992 0.00970795 0.00951856 -2.82158e-05 0.00962271 1.69544e-07 272.549 
-0.35 -0.21 -1.18547 2.29733 0.00971337 0.00952148 -2.34219e-05 0.00962539 1.69539e-07 272.634 
-0.37 -0.19 -1.24593 2.36552 0.00970819 0.00952123 -2.62504e-05 0.00961948 1.69544e-07 272.457 
-0.35 -0.19 -1.21957 2.46678 0.00971111 0.00951687 -2.9724e-05 0.00961348 1.69515e-07 272.334 
-0.37 -0.17 -1.17857 2.41373 0.00970673 0.00951868 -3.16301e-05 0.00961601 1.69514e-07 272.408 
-0.35 -0.17 -1.18378 2.44856 0.00970542 0.00951557 -2.86435e-05 0.00961758 1.69571e-07 272.361 
-0.33 -0.17 -1.3141 2.36529 0.00970676 0.00951766 -2.22214e-05 0.00962275 1.69624e-07 272.423 
-0.37 -0.15 -0.999137 2.47607 0.00969272 0.00951577 -3.28925e-05 0.0096125 1.69472e-07 272.375 
-0.35 -0.15 -1.16591 2.5435 0.00969725 0.00951167 -2.97931e-05 0.00960906 1.69326e-07 272.513 
-0.33 -0.15 -1.37594 2.64505 0.00970276 0.00951208 -2.96825e-05 0.00961698 1.69424e-07 272.58 
-0.37 -0.13 -1.24539 2.77068 0.0096997 0.00951293 -3.46768e-05 0.00961226 1.69411e-07 272.467 
-0.35 -0.13 -1.36719 2.62991 0.00970318 0.00950908 -3.77472e-05 0.00960782 1.69318e-07 272.49 
-0.33 -0.13 -1.46877 2.90542 0.00970432 0.00951059 -3.13815e-05 0.00960842 1.69376e-07 272.415 
-0.37 -0.11 -1.05475 2.98634 0.00969535 0.00950786 -4.44811e-05 0.00960786 1.69306e-07 272.512 
-0.35 -0.11 -1.31706 2.80294 0.00970084 0.00950809 -3.45323e-05 0.00960743 1.69335e-07 272.452 
-0.33 -0.11 -1.48811 3.07621 0.00969594 0.00950012 -2.87984e-05 0.00960142 1.69238e-07 272.439 
-0.35 -0.09 -1.06483 3.09997 0.00968256 0.00949917 -3.39052e-05 0.00958754 1.69134e-07 272.212 
-0.49 -0.13 -0.0876516 2.40389 0.00966893 0.00951427 -7.44009e-05 0.00959944 1.69263e-07 272.342 
-0.47 -0.13 -0.236408 2.55105 0.00967119 0.00950838 -6.74082e-05 0.00959779 1.69309e-07 272.221 
-0.45 -0.13 -0.4472 2.54477 0.00967248 0.00949954 -5.61302e-05 0.00959444 1.69178e-07 272.336 
-0.49 -0.11 0.012684 2.60446 0.00967104 0.00951073 -7.31364e-05 0.00959318 1.69121e-07 272.393 
-0.43 -0.13 -0.600689 2.78419 0.00968294 0.00949164 -5.33488e-05 0.00959377 1.69326e-07 272.08 
-0.47 -0.11 -0.159664 2.68719 0.00967095 0.00950043 -6.87999e-05 0.00958707 1.69112e-07 272.233 
-0.41 -0.13 -0.842669 2.82083 0.00969214 0.00950269 -4.62512e-05 0.00960393 1.69344e-07 272.338 
-0.45 -0.11 -0.364426 2.77882 0.00967592 0.00949381 -6.5319e-05 0.00959151 1.69145e-07 272.307 
-0.49 -0.09 0.031917 2.65218 0.00966119 0.00950112 -7.78565e-05 0.00958702 1.69039e-07 272.35 
-0.39 -0.13 -1.04931 3.00481 0.00969626 0.00950291 -3.84204e-05 0.00960285 1.69228e-07 272.495 
-0.43 -0.11 -0.55425 2.92682 0.00967462 0.00948489 -5.94281e-05 0.00958441 1.6911e-07 272.161 
-0.47 -0.09 -0.205974 2.8422 0.00966638 0.00949421 -7.14973e-05 0.00958528 1.68984e-07 272.389 
-0.41 -0.11 -0.717689 3.04894 0.00967898 0.00949257 -5.10923e-05 0.0095884 1.69057e-07 272.361 
-0.45 -0.09 -0.41105 3.05948 0.009665 0.00949315 -6.50442e-05 0.00958215 1.68932e-07 272.384 
-0.39 -0.11 -0.858375 3.18021 0.00969058 0.0095017 -4.32854e-05 0.00959527 1.69062e-07 272.547 
-0.43 -0.09 -0.687443 3.11887 0.00967117 0.00947735 -6.13969e-05 0.00957785 1.69015e-07 272.127 
-0.41 -0.09 -0.739039 3.10369 0.00967564 0.00948575 -5.73203e-05 0.00957967 1.68811e-07 272.509 
-0.39 -0.09 -0.829453 3.36222 0.00968363 0.00949659 -5.62193e-05 0.00959088 1.68965e-07 272.578 
-0.37 -0.09 -0.880135 3.05897 0.0096816 0.00950043 -3.94315e-05 0.00959263 1.69064e-07 272.469 
-0.35 -0.03 -1.28335 3.49399 0.00965653 0.00949602 -4.73157e-05 0.00958644 1.69159e-07 272.14 
-0.37 -0.07 -1.19021 3.25994 0.00966517 0.00949448 -4.42e-05 0.00958486 1.69027e-07 272.307 
-0.41 -0.05 -0.843249 3.59899 0.00965121 0.00947753 -6.32551e-05 0.0095711 1.68687e-07 272.464 
-0.45 -0.03 -0.434252 3.52799 0.00963008 0.00946677 -8.53521e-05 0.00956251 1.68704e-07 272.193 
-0.35 -0.07 -1.37822 3.23547 0.00967058 0.00949729 -3.7488e-05 0.0095878 1.68948e-07 272.519 
-0.39 -0.05 -1.02679 3.45295 0.00965485 0.00946446 -5.43052e-05 0.00956828 1.68846e-07 272.128 
-0.43 -0.03 -0.597489 3.76073 0.00963795 0.00946346 -7.35448e-05 0.00955981 1.68608e-07 272.271 
-0.33 -0.07 -1.573 3.48305 0.00967726 0.00950165 -3.48592e-05 0.00958738 1.69039e-07 272.36 
-0.37 -0.05 -1.18186 3.42858 0.0096667 0.0094901 -4.465e-05 0.00958973 1.69032e-07 272.439 
-0.41 -0.03 -0.783867 3.76542 0.009645 0.00947008 -6.72382e-05 0.009564 1.68728e-07 272.197 
-0.35 -0.05 -1.35693 3.44235 0.00966941 0.00949548 -4.67808e-05 0.00958612 1.68932e-07 272.497 
-0.39 -0.03 -0.941284 3.7606 0.00964311 0.00945998 -6.11205e-05 0.00956058 1.68764e-07 272.042 
-0.33 -0.05 -1.34924 3.48244 0.00967499 0.00949652 -4.23285e-05 0.0095902 1.69034e-07 272.448 
-0.37 -0.03 -1.158 3.63113 0.00965008 0.00948076 -5.81384e-05 0.00957624 1.68829e-07 272.382 
-0.33 -0.03 -1.51331 3.53068 0.00966733 0.00949358 -4.75915e-05 0.00958966 1.69142e-07 272.259 
-0.49 -0.07 -0.145646 2.70228 0.00963391 0.00948946 -9.03332e-05 0.00957198 1.68771e-07 272.354 
-0.47 -0.07 -0.180654 3.14236 0.00965451 0.00948705 -8.05452e-05 0.00957893 1.68995e-07 272.191 
-0.45 -0.07 -0.437876 3.28457 0.00966313 0.00948426 -6.94428e-05 0.00958347 1.69045e-07 272.239 
-0.49 -0.05 -0.103688 2.9086 0.00963341 0.00947743 -9.77352e-05 0.00957265 1.68816e-07 272.301 
-0.43 -0.07 -0.622557 3.2724 0.0096655 0.00947891 -6.04292e-05 0.0095756 1.68944e-07 272.179 
-0.47 -0.05 -0.265425 3.1603 0.00963203 0.00947429 -8.45679e-05 0.00956587 1.68789e-07 272.151 
-0.41 -0.07 -0.885029 3.27778 0.00966801 0.00948436 -6.68165e-05 0.00958272 1.68925e-07 272.411 
-0.45 -0.05 -0.339351 3.52915 0.00963992 0.00947317 -7.76959e-05 0.00956735 1.68683e-07 272.364 
-0.49 -0.03 -0.120037 3.08069 0.00961337 0.0094665 -0.000102549 0.00955217 1.68466e-07 272.283 
-0.39 -0.07 -1.06934 3.40006 0.00966842 0.00947921 -5.02824e-05 0.00957808 1.68905e-07 272.312 
-0.43 -0.05 -0.553984 3.50309 0.00964943 0.00947799 -6.94646e-05 0.00957378 1.68833e-07 272.306 
-0.47 -0.03 -0.325584 3.39667 0.00962285 0.00946932 -9.27157e-05 0.00955284 1.68592e-07 272.099 
-0.27 -0.07 -1.83892 2.77413 0.00968823 0.00954271 -3.17049e-05 0.00962236 1.69565e-07 272.505 
-0.31 -0.05 -1.57008 3.36634 0.00968604 0.00951668 -4.15742e-05 0.00960738 1.69254e-07 272.581 
-0.27 -0.09 -1.97364 2.66675 0.00970307 0.00954764 -2.45573e-05 0.00962802 1.69741e-07 272.383 
-0.31 -0.07 -1.51445 3.12287 0.0096774 0.00951207 -3.40139e-05 0.00959948 1.6916e-07 272.509 
-0.29 -0.07 -1.69393 3.08916 0.0096839 0.00952904 -3.72575e-05 0.00961497 1.69471e-07 272.447 
-0.25 -0.07 -1.88841 2.71681 0.00969062 0.00955828 -2.38556e-05 0.00962763 1.69745e-07 272.366 
-0.29 -0.05 -1.72345 3.1471 0.00968366 0.00952184 -3.42089e-05 0.00960985 1.69398e-07 272.42 
-0.27 -0.05 -1.94712 2.97957 0.00967898 0.00953703 -3.3811e-05 0.00961706 1.69392e-07 272.634 
-0.31 -0.03 -1.71946 3.61454 0.00966875 0.00951109 -4.05854e-05 0.0096015 1.69225e-07 272.461 
-0.25 -0.05 -2.06857 2.7999 0.00968065 0.00954978 -2.42567e-05 0.00961861 1.69524e-07 272.465 
-0.29 -0.03 -1.93585 3.35707 0.00966856 0.00952136 -3.96942e-05 0.00960459 1.69293e-07 272.439 
-0.27 -0.03 -1.99264 3.11774 0.0096804 0.00953018 -3.28994e-05 0.00960966 1.69514e-07 272.228 
-0.25 -0.03 -2.02268 2.79377 0.00968716 0.00955498 -3.5546e-05 0.00962518 1.69641e-07 272.463 
-0.31 -0.25 -1.56038 1.53592 0.00972263 0.00955392 -9.32599e-06 0.00964334 1.69783e-07 272.749 
-0.29 -0.25 -1.72256 1.53632 0.00972537 0.00956258 -6.76878e-06 0.00964415 1.69874e-07 272.627 
-0.27 -0.25 -1.56452 1.66538 0.00972745 0.00957129 -3.18904e-06 0.00965445 1.69939e-07 272.813 
-0.29 -0.11 -1.81301 2.56515 0.00971033 0.00953763 -2.24232e-05 0.00962928 1.69639e-07 272.583 
-0.33 -0.09 -1.28471 3.28055 0.0096845 0.00950477 -3.412e-05 0.0095975 1.69214e-07 272.366 
-0.27 -0.11 -1.78554 2.52839 0.00970924 0.0095471 -1.52277e-05 0.00963519 1.69784e-07 272.516 
-0.31 -0.09 -1.4919 3.08201 0.00968435 0.00951143 -3.15668e-05 0.00960414 1.69294e-07 272.425 
-0.29 -0.09 -1.70475 2.74113 0.00969196 0.00953162 -2.76577e-05 0.00962125 1.69562e-07 272.48 
-0.33 -0.23 -1.15348 2.00018 0.00971902 0.00953619 -1.46796e-05 0.00963096 1.69739e-07 272.47 
-0.31 -0.23 -1.43481 1.80872 0.00972209 0.00955165 -1.13157e-05 0.00963636 1.69783e-07 272.551 
-0.29 -0.23 -1.67328 1.59407 0.00972927 0.00956328 -8.411e-06 0.0096467 1.69827e-07 272.774 
-0.33 -0.21 -1.28576 2.00529 0.00971686 0.00953207 -1.46262e-05 0.0096283 1.69661e-07 272.52 
-0.27 -0.23 -1.90117 1.71274 0.00972864 0.0095678 -6.73373e-06 0.00965399 1.70034e-07 272.648 
-0.31 -0.21 -1.35427 2.16887 0.00971979 0.00955263 -1.40732e-05 0.00964074 1.69833e-07 272.595 
-0.29 -0.21 -1.61567 1.82733 0.00971742 0.00955386 -1.29528e-05 0.00963967 1.6976e-07 272.683 
-0.33 -0.19 -1.30039 2.0608 0.00971609 0.00952606 -2.40863e-05 0.00962812 1.69589e-07 272.63 
-0.27 -0.21 -1.92299 1.97979 0.00971884 0.00956616 -2.68456e-06 0.0096469 1.6987e-07 272.711 
-0.31 -0.19 -1.43405 2.25062 0.00971871 0.00954488 -1.19687e-05 0.00963821 1.69746e-07 272.663 
-0.25 -0.21 -2.07677 1.79759 0.00972333 0.00956553 -1.34967e-06 0.00964848 1.69903e-07 272.702 
-0.29 -0.19 -1.66244 2.04634 0.00971471 0.00955101 -8.1013e-06 0.00963495 1.69679e-07 272.679 
-0.27 -0.19 -1.75341 2.19107 0.0097187 0.00956268 -1.00311e-05 0.00964194 1.69942e-07 272.455 
-0.31 -0.17 -1.62089 2.34921 0.0097082 0.00953622 -1.82707e-05 0.00962606 1.69611e-07 272.537 
-0.25 -0.19 -1.96639 2.02998 0.00972434 0.00956094 -7.95409e-06 0.00964843 1.70004e-07 272.539 
-0.29 -0.17 -1.74922 2.30403 0.0097224 0.00955298 -9.99315e-06 0.00963991 1.6988e-07 272.496 
-0.27 -0.17 -1.83024 2.15515 0.00972111 0.00956377 -1.49945e-05 0.009645 1.6994e-07 272.544 
-0.31 -0.15 -1.62727 2.55027 0.00971316 0.00953923 -2.49259e-05 0.00963121 1.69682e-07 272.569 
-0.25 -0.17 -1.72715 2.22594 0.00971624 0.00955424 -8.40859e-06 0.00964185 1.69958e-07 272.426 
-0.29 -0.15 -1.71592 2.48167 0.00971095 0.0095387 -1.75153e-05 0.00962908 1.69726e-07 272.438 
-0.27 -0.15 -1.89575 2.17882 0.00971364 0.00956221 -8.11043e-06 0.00964064 1.69921e-07 272.452 
-0.31 -0.13 -1.643 2.72956 0.00969786 0.00952595 -2.12908e-05 0.00961658 1.69432e-07 272.556 
-0.25 -0.15 -1.94158 2.17473 0.00971333 0.00955366 -7.77504e-06 0.00964199 1.69851e-07 272.602 
-0.29 -0.13 -1.7293 2.55447 0.00970072 0.00953538 -1.91476e-05 0.00962392 1.69605e-07 272.485 
-0.27 -0.13 -1.85962 2.394 0.00970643 0.00955495 -1.38662e-05 0.00963452 1.69729e-07 272.587 
-0.31 -0.11 -1.66536 2.83246 0.00970454 0.0095191 -2.87459e-05 0.00961389 1.69408e-07 272.518 