ITEM: TIMESTEP
1006500
ITEM: NUMBER OF CELLS
2500
ITEM: BOX BOUNDS ss ss pp
-0.5 0.5
-0.5 0.5
-0.5 0.5
ITEM: CELLS xc yc f_U[*] f_V[*] f_Tau[1] f_Tau[2] f_Tau[3] f_Press[*] f_Mrho[*] f_Ttra[*] 
-0.49 -0.49 -0.08239 0.10406 0.00967214 0.00955299 -3.57457e-06 0.0096129 1.69376e-07 272.542 
-0.47 -0.49 -0.245271 0.0430559 0.00966232 0.00955989 -7.74655e-06 0.00961575 1.69321e-07 272.711 
-0.45 -0.49 -0.395794 0.0970715 0.00966251 0.00956222 -3.93477e-06 0.00961718 1.69302e-07 272.782 
-0.49 -0.47 -0.148029 0.270149 0.00966732 0.00955619 -4.39135e-07 0.00961353 1.69326e-07 272.64 
-0.43 -0.49 -0.588329 0.104593 0.00966568 0.00957381 -9.63471e-06 0.00961928 1.6936e-07 272.747 
-0.47 -0.47 -0.309473 0.260511 0.00967636 0.00956552 -4.18686e-06 0.00962806 1.6947e-07 272.82 
-0.41 -0.49 -0.681842 0.0280274 0.00966678 0.00955503 -1.57568e-06 0.00961171 1.69196e-07 272.798 
-0.45 -0.47 -0.411903 0.124071 0.00967979 0.0095667 -1.47674e-05 0.00962702 1.69465e-07 272.799 
-0.49 -0.45 -0.035986 0.542691 0.00967506 0.00955871 -1.49558e-05 0.00962152 1.69573e-07 272.469 
-0.39 -0.49 -0.712355 0.00302115 0.00967742 0.00957775 1.68711e-05 0.00962796 1.69442e-07 272.862 
-0.43 -0.47 -0.303811 0.107284 0.0096815 0.00956661 -4.6289e-06 0.00962362 1.69382e-07 272.836 
-0.47 -0.45 -0.236463 0.330138 0.00968566 0.00956508 -6.52728e-06 0.00963331 1.69575e-07 272.8 
-0.37 -0.49 -0.621529 -0.0118804 0.00967461 0.00957382 1.19062e-05 0.00962475 1.69354e-07 272.914 
-0.41 -0.47 -0.455726 0.133373 0.00968012 0.00954573 -2.85734e-07 0.00961656 1.69276e-07 272.807 
-0.45 -0.45 -0.341962 0.180829 0.0096849 0.0095682 -8.88497e-06 0.00963367 1.69535e-07 272.874 
-0.49 -0.43 -0.0130764 0.583695 0.00969395 0.0095584 -9.57388e-06 0.00962838 1.69523e-07 272.743 
-0.35 -0.49 -0.74877 0.0142336 0.00968168 0.00957466 1.86562e-05 0.00962478 1.69492e-07 272.692 
-0.39 -0.47 -0.523323 0.0626309 0.00968234 0.00957311 3.50621e-06 0.0096237 1.69451e-07 272.727 
-0.43 -0.45 -0.560938 0.124167 0.00968138 0.0095545 -5.96292e-06 0.00962155 1.69388e-07 272.767 
-0.47 -0.43 -0.0850307 0.451863 0.00969072 0.00956936 -1.49122e-05 0.00963491 1.69565e-07 272.861 
-0.37 -0.47 -0.712879 0.0515214 0.00968829 0.00956847 1.30584e-05 0.00962972 1.69594e-07 272.667 
-0.41 -0.45 -0.539297 0.216455 0.00968921 0.0095524 -2.11359e-06 0.0096275 1.69497e-07 272.761 
-0.45 -0.43 -0.165554 0.348482 0.00968887 0.00956137 -5.35307e-06 0.00963229 1.69615e-07 272.707 
-0.49 -0.41 -0.0239216 0.627942 0.00968799 0.00956235 -1.30383e-05 0.0096308 1.69584e-07 272.714 
-0.35 -0.47 -0.83098 0.0958785 0.00969185 0.00957559 1.32945e-05 0.00963839 1.69774e-07 272.623 
-0.39 -0.45 -0.646527 0.162639 0.00969162 0.0095611 -3.76728e-06 0.00962745 1.69621e-07 272.56 
-0.43 -0.43 -0.240638 0.367634 0.00968997 0.00955383 -7.63682e-06 0.00962545 1.69557e-07 272.607 
-0.47 -0.41 -0.200875 0.616814 0.00969383 0.00956147 -1.65627e-05 0.00963752 1.69579e-07 272.912 
-0.37 -0.45 -0.837161 0.240687 0.0096934 0.00956714 1.13483e-05 0.00963068 1.6968e-07 272.556 
-0.41 -0.43 -0.563276 0.371628 0.0096887 0.00955636 -6.07379e-06 0.00962537 1.6945e-07 272.776 
-0.45 -0.41 -0.342147 0.465482 0.00969822 0.0095609 -3.88015e-06 0.00963103 1.6965e-07 272.615 
-0.49 -0.39 -0.159042 0.822101 0.00969891 0.00956749 -1.64785e-05 0.00963863 1.69697e-07 272.753 
-0.35 -0.45 -0.878021 0.168418 0.00969263 0.00957025 9.05238e-06 0.00963965 1.69739e-07 272.716 
-0.39 -0.43 -0.977378 0.34797 0.00968614 0.00954346 3.09099e-07 0.00961672 1.69546e-07 272.377 
-0.43 -0.41 -0.549662 0.471006 0.00970107 0.0095589 -2.84335e-06 0.00963687 1.69646e-07 272.786 
-0.47 -0.39 -0.25534 0.669467 0.00969149 0.00954649 -1.03457e-05 0.00962289 1.69583e-07 272.491 
-0.37 -0.43 -0.928433 0.215603 0.00969742 0.00956522 1.07452e-07 0.00963302 1.69644e-07 272.681 
-0.41 -0.41 -0.58095 0.673528 0.00970051 0.00954766 -7.3691e-06 0.00962637 1.69619e-07 272.532 
-0.45 -0.39 -0.412286 0.711154 0.00969779 0.00956521 -1.73055e-05 0.00963856 1.69617e-07 272.881 
-0.35 -0.43 -0.924757 0.219393 0.00971231 0.00957301 5.29173e-06 0.00964578 1.69828e-07 272.746 
-0.39 -0.41 -0.57712 0.454648 0.00969737 0.00954563 -6.17817e-06 0.00962922 1.696e-07 272.643 
-0.43 -0.39 -0.489531 0.650148 0.00971368 0.00954791 -1.40129e-05 0.00963658 1.69695e-07 272.699 
-0.37 -0.41 -0.684865 0.194738 0.00970346 0.00956296 -7.24572e-06 0.00964127 1.69762e-07 272.725 
-0.41 -0.39 -0.613986 0.592567 0.00971807 0.00954692 -4.83922e-06 0.00963698 1.69792e-07 272.555 
-0.35 -0.41 -0.888571 0.52518 0.00970115 0.00955665 4.95288e-06 0.00963562 1.69726e-07 272.623 
-0.39 -0.39 -0.625812 0.551807 0.00972008 0.0095521 -1.57301e-06 0.00964416 1.69799e-07 272.748 
-0.37 -0.39 -1.09768 0.575578 0.0097128 0.0095599 -1.6318e-06 0.00964483 1.69877e-07 272.64 
-0.41 -0.37 -0.561986 0.700711 0.00970059 0.0095471 -7.92707e-06 0.00963222 1.69746e-07 272.495 
-0.35 -0.39 -1.29861 0.666615 0.00969912 0.00954514 8.86574e-07 0.00963158 1.69546e-07 272.797 
-0.33 -0.39 -1.36622 0.772601 0.00971019 0.00956386 -1.94854e-06 0.00964394 1.69868e-07 272.63 
-0.33 -0.49 -0.863914 0.108025 0.0096822 0.00957814 2.29844e-05 0.0096359 1.69524e-07 272.955 
-0.33 -0.47 -0.831516 0.115912 0.00969813 0.00958295 1.37332e-05 0.0096456 1.6977e-07 272.833 
-0.33 -0.43 -1.18238 0.34476 0.0097036 0.00956348 1.68383e-05 0.00963499 1.69736e-07 272.588 
-0.49 -0.37 -0.027566 0.993192 0.00969571 0.00956534 -2.18125e-05 0.00963908 1.6971e-07 272.746 
-0.47 -0.37 -0.152271 0.862901 0.00970613 0.00955403 -1.6739e-05 0.00963943 1.69667e-07 272.824 
-0.45 -0.37 -0.354898 0.766396 0.00970904 0.00956767 -2.3521e-05 0.00964344 1.69648e-07 272.969 
-0.49 -0.35 -0.0187909 1.06637 0.0096945 0.00955779 -2.35173e-05 0.0096329 1.69605e-07 272.739 
-0.43 -0.37 -0.473549 0.721109 0.00970287 0.00953341 -1.45894e-05 0.0096264 1.69558e-07 272.632 
-0.47 -0.35 0.000838843 0.885884 0.00969999 0.00955768 -2.62176e-05 0.00963362 1.69548e-07 272.853 
-0.45 -0.35 -0.2652 1.04835 0.00970271 0.00956035 -1.86661e-05 0.00963888 1.69755e-07 272.669 
-0.49 -0.33 -0.0125805 1.02548 0.00969756 0.00955986 -2.73562e-05 0.00963335 1.6963e-07 272.713 
-0.39 -0.37 -0.818588 0.929756 0.00970658 0.00954947 -3.3063e-06 0.00963241 1.69632e-07 272.682 
-0.43 -0.35 -0.516881 0.818429 0.00969153 0.00953114 -1.34676e-05 0.00961965 1.69431e-07 272.644 
-0.47 -0.33 -0.162086 1.14866 0.00969751 0.00955297 -2.65716e-05 0.00963673 1.69685e-07 272.72 
-0.37 -0.37 -0.961227 0.732509 0.00970584 0.00954619 -6.80429e-07 0.00963236 1.69645e-07 272.66 
-0.41 -0.35 -0.710203 0.829943 0.00970165 0.00954464 -1.03331e-05 0.00963374 1.69691e-07 272.626 
-0.45 -0.33 -0.275062 1.20566 0.00969379 0.00954708 -1.49407e-05 0.00962909 1.69705e-07 272.471 
-0.49 -0.31 -0.110195 1.07973 0.00970062 0.00956704 -2.3348e-05 0.00964457 1.69809e-07 272.742 
-0.39 -0.35 -0.793607 0.998793 0.00970931 0.00954341 -1.13806e-05 0.00963278 1.69666e-07 272.638 
-0.43 -0.33 -0.449417 1.00661 0.00970331 0.00954313 -1.61476e-05 0.00963053 1.6976e-07 272.423 
-0.47 -0.31 -0.277482 1.34674 0.00970105 0.00954543 -2.73332e-05 0.00963623 1.69696e-07 272.687 
-0.37 -0.35 -0.768651 0.893022 0.00971519 0.00954645 -1.76181e-06 0.00963643 1.69669e-07 272.738 
-0.41 -0.33 -0.755253 1.1706 0.0097048 0.00953047 -2.01925e-05 0.00962416 1.69614e-07 272.477 
-0.45 -0.31 -0.368767 1.29207 0.00971226 0.00954334 -2.23896e-05 0.00963598 1.69602e-07 272.831 
-0.49 -0.29 -0.0528253 1.38043 0.00970094 0.00956066 -3.67956e-05 0.00963769 1.69832e-07 272.511 
-0.35 -0.35 -1.08146 1.06905 0.00971872 0.00955884 -6.77801e-06 0.00964201 1.69766e-07 272.74 
-0.39 -0.33 -1.07233 0.957041 0.00971188 0.00954778 -1.3609e-05 0.00963782 1.69794e-07 272.575 
-0.43 -0.31 -0.27501 1.19726 0.00971538 0.0095474 -2.10441e-05 0.00963949 1.69734e-07 272.719 
-0.47 -0.29 -0.282062 1.44066 0.00970991 0.00955154 -3.28911e-05 0.00963468 1.69614e-07 272.776 
-0.37 -0.33 -0.974244 1.03373 0.00971011 0.0095411 -1.56964e-05 0.00963464 1.69599e-07 272.799 
-0.41 -0.31 -0.551717 1.50247 0.00971613 0.00953124 -1.81291e-05 0.00962755 1.69833e-07 272.223 
-0.45 -0.29 -0.200879 1.10179 0.00971218 0.00952547 -2.79851e-05 0.00962968 1.69559e-07 272.723 
-0.35 -0.33 -1.0199 1.29486 0.00972078 0.00955755 -6.69251e-06 0.00964282 1.69737e-07 272.809 
-0.39 -0.31 -0.728 1.24801 0.0097144 0.00953747 -1.85654e-05 0.00963577 1.69682e-07 272.697 
-0.43 -0.29 -0.424489 1.44923 0.00972054 0.00954986 -2.22067e-05 0.00964538 1.69966e-07 272.513 
-0.47 -0.27 -0.110272 1.31422 0.00970093 0.00955176 -3.60106e-05 0.00963465 1.69584e-07 272.823 
-0.33 -0.33 -1.18763 1.12981 0.00971791 0.00954938 -1.48238e-06 0.00964306 1.69771e-07 272.76 
-0.37 -0.31 -1.21898 1.02905 0.00972275 0.00954676 -1.70085e-05 0.00964795 1.69873e-07 272.735 
-0.41 -0.29 -0.398461 1.55126 0.00972159 0.00953459 -2.64715e-05 0.00964207 1.69812e-07 272.666 
-0.45 -0.27 -0.195572 1.4564 0.00970335 0.00952557 -3.33153e-05 0.0096253 1.69592e-07 272.545 
-0.35 -0.31 -1.2975 1.37045 0.00971852 0.00954159 -1.02747e-05 0.00963705 1.69712e-07 272.685 
-0.39 -0.29 -0.556343 1.65406 0.00972395 0.00953428 -1.59957e-05 0.00963547 1.69795e-07 272.507 
-0.43 -0.27 -0.531452 1.65534 0.00970276 0.00954399 -2.77855e-05 0.00962873 1.69702e-07 272.467 
-0.37 -0.29 -0.877532 1.35435 0.00971689 0.00954172 -1.31567e-05 0.00963713 1.69753e-07 272.621 
-0.41 -0.27 -0.691852 1.52964 0.00970354 0.00953044 -2.48605e-05 0.00962244 1.69603e-07 272.448 
-0.35 -0.29 -0.953406 1.34478 0.00971258 0.00953455 -9.78852e-06 0.00963238 1.6961e-07 272.718 
-0.39 -0.27 -0.622712 1.7731 0.00970426 0.00952729 -1.70953e-05 0.00962239 1.69616e-07 272.425 
-0.33 -0.29 -1.07208 1.16694 0.00972062 0.00953778 -7.31348e-06 0.00963993 1.69822e-07 272.59 
-0.37 -0.27 -0.766582 1.51404 0.00971443 0.00953834 -1.1314e-05 0.00963229 1.69698e-07 272.573 
-0.35 -0.27 -1.14891 1.58004 0.00972174 0.00953901 -1.11508e-05 0.00963593 1.69761e-07 272.575 
-0.33 -0.27 -1.43139 1.44218 0.00971145 0.00953261 -6.36474e-06 0.00962727 1.6978e-07 272.299 
-0.35 -0.37 -1.12895 0.731168 0.00972016 0.00955695 -9.17146e-07 0.00964271 1.69855e-07 272.616 
-0.33 -0.37 -1.34525 1.02094 0.00971982 0.00956257 -9.04413e-07 0.00964559 1.6996e-07 272.529 
-0.33 -0.35 -1.27898 1.06037 0.009721 0.00955488 -3.5144e-06 0.00963733 1.69818e-07 272.523 
-0.33 -0.31 -1.22954 1.23237 0.00971952 0.00954348 1.91563e-07 0.00963861 1.69766e-07 272.642 
-0.31 -0.49 -0.840489 -0.108793 0.00968444 0.00958835 1.32764e-05 0.00964382 1.69672e-07 272.942 
-0.29 -0.49 -0.852147 0.0240175 0.00968988 0.00960338 3.0926e-05 0.00965243 1.69999e-07 272.66 
-0.27 -0.49 -1.00874 0.0696931 0.00968836 0.00960291 3.36619e-05 0.00965431 1.69986e-07 272.733 
-0.31 -0.47 -0.911809 -0.0162123 0.0097029 0.0095755 2.00404e-05 0.00964395 1.69827e-07 272.696 
-0.29 -0.47 -1.10964 0.17448 0.00970285 0.00959651 2.83475e-05 0.0096529 1.69924e-07 272.794 
-0.27 -0.47 -1.16252 0.153961 0.0097054 0.00960156 3.1259e-05 0.00965078 1.69921e-07 272.738 
-0.31 -0.45 -1.17532 0.152197 0.0096948 0.00956802 2.1166e-05 0.00963399 1.69824e-07 272.418 
-0.29 -0.45 -1.33121 0.338591 0.00970109 0.00958539 2.12858e-05 0.00964879 1.6988e-07 272.748 
-0.27 -0.45 -1.28391 0.17938 0.0097198 0.00960902 2.21071e-05 0.00966257 1.70007e-07 272.932 
-0.31 -0.43 -1.28736 0.323823 0.00970656 0.00957435 1.59004e-05 0.00964876 1.70008e-07 272.542 
-0.29 -0.43 -1.27856 0.283123 0.00971322 0.00959032 1.26488e-05 0.00965636 1.69981e-07 272.8 
-0.27 -0.43 -1.51117 0.327225 0.00971496 0.00959783 1.2282e-05 0.00966146 1.70005e-07 272.905 
-0.31 -0.41 -1.32634 0.495256 0.00971525 0.00957584 9.02246e-06 0.00965214 1.69924e-07 272.772 
-0.25 -0.43 -1.64981 0.326033 0.0097258 0.00959765 2.56307e-05 0.00966223 1.70227e-07 272.57 
-0.29 -0.41 -1.65226 0.399959 0.00971794 0.00959267 8.07285e-06 0.00966272 1.70109e-07 272.773 
-0.27 -0.41 -1.59886 0.349654 0.00971594 0.00959109 1.4894e-05 0.00965651 1.70006e-07 272.764 
-0.31 -0.39 -1.52194 0.530346 0.00972373 0.00957481 7.50337e-06 0.00965003 1.69919e-07 272.72 
-0.25 -0.41 -1.63083 0.535487 0.00970902 0.00959429 1.89253e-05 0.00965663 1.7007e-07 272.664 
-0.29 -0.39 -1.45319 0.53438 0.0097241 0.00958777 1.23433e-05 0.00965768 1.69994e-07 272.816 
-0.27 -0.39 -1.65819 0.295857 0.00972134 0.00957887 1.41888e-05 0.00965618 1.70019e-07 272.734 
-0.31 -0.37 -1.39624 0.503355 0.00971509 0.00956039 -4.05416e-07 0.00964639 1.69853e-07 272.723 
-0.25 -0.39 -1.66777 0.601208 0.00972989 0.00960776 1.45547e-05 0.00967789 1.70244e-07 272.985 
-0.29 -0.37 -1.47977 0.760632 0.00972106 0.00958403 1.02825e-05 0.00965303 1.69844e-07 272.926 
-0.27 -0.37 -1.75069 0.518435 0.00972589 0.00958356 1.39712e-05 0.00965626 1.69983e-07 272.794 
-0.31 -0.35 -1.42208 0.773759 0.00972203 0.00955984 1.91182e-06 0.0096441 1.69984e-07 272.448 
-0.29 -0.35 -1.64708 0.803453 0.00972133 0.009578 5.44343e-06 0.00965658 1.6998e-07 272.808 
-0.27 -0.35 -1.59778 0.696334 0.00972494 0.0095799 9.13117e-06 0.00966017 1.70153e-07 272.632 
-0.31 -0.33 -1.3239 0.946238 0.00971236 0.00955239 5.35542e-06 0.00964011 1.69799e-07 272.632 
-0.29 -0.33 -1.49829 1.02264 0.00971728 0.0095733 1.18338e-06 0.00965127 1.69957e-07 272.693 
-0.27 -0.33 -1.88643 0.840733 0.00971751 0.00958036 8.84548e-06 0.00965176 1.69902e-07 272.796 
-0.31 -0.31 -1.27618 1.11807 0.00972504 0.00955898 -1.38761e-06 0.00965244 1.69993e-07 272.669 
-0.29 -0.31 -1.53336 1.26778 0.00972394 0.00956399 5.45305e-06 0.0096471 1.6983e-07 272.78 
-0.27 -0.31 -1.62338 1.15487 0.00972496 0.0095777 2.46635e-06 0.00965653 1.69982e-07 272.803 
-0.31 -0.29 -1.2683 1.46731 0.00972127 0.00955551 -2.34868e-07 0.00964404 1.70082e-07 272.29 
-0.25 -0.31 -1.89957 1.00956 0.00973019 0.00958762 1.30893e-05 0.00966448 1.70113e-07 272.817 
-0.29 -0.29 -1.51993 1.37825 0.00972181 0.00956499 5.47461e-06 0.00964826 1.69907e-07 272.689 
-0.27 -0.29 -1.71724 1.46424 0.0097227 0.00957585 5.94922e-07 0.00965068 1.69938e-07 272.707 
-0.31 -0.27 -1.67784 1.58115 0.00971391 0.0095486 -1.99792e-06 0.0096335 1.69923e-07 272.247 
-0.25 -0.29 -1.88208 1.09058 0.00973068 0.00958402 2.0255e-06 0.00966397 1.70185e-07 272.688 
-0.29 -0.27 -1.53738 1.55924 0.00972333 0.00956347 -5.83537e-06 0.00965231 1.70059e-07 272.56 
-0.27 -0.27 -1.71013 1.44735 0.00973078 0.00957924 2.0601e-06 0.00965653 1.70021e-07 272.74 
-0.25 -0.27 -1.69842 1.31289 0.00972896 0.00958421 -1.99867e-06 0.00966285 1.70098e-07 272.795 
-0.33 -0.45 -0.980349 0.154251 0.00969935 0.00958047 1.06181e-05 0.00964133 1.69766e-07 272.72 
-0.33 -0.41 -1.12853 0.573332 0.00971039 0.00956273 1.51991e-05 0.00964166 1.69856e-07 272.585 
-0.25 -0.49 -1.17374 0.0747757 0.00969171 0.00960187 3.91585e-05 0.00965322 1.69813e-07 272.981 
-0.23 -0.49 -1.25605 0.0596452 0.00970333 0.00960624 3.6363e-05 0.00965803 1.70018e-07 272.787 
-0.25 -0.47 -1.23367 0.228278 0.00971395 0.00960207 2.72469e-05 0.00965747 1.70018e-07 272.772 
-0.23 -0.47 -1.38377 0.195828 0.00971858 0.00961531 2.77624e-05 0.00966835 1.70267e-07 272.68 
-0.25 -0.45 -1.26723 0.260154 0.00972123 0.00960321 2.33795e-05 0.00966733 1.70215e-07 272.734 
-0.23 -0.45 -1.49126 0.364427 0.00972234 0.00961228 2.59733e-05 0.00967039 1.70209e-07 272.829 
-0.25 -0.37 -1.81404 0.434412 0.00972447 0.00959755 1.35358e-05 0.00966624 1.70119e-07 272.857 
-0.25 -0.35 -1.91111 0.638847 0.00972639 0.00959382 1.07796e-05 0.00966841 1.70113e-07 272.928 
-0.25 -0.33 -2.10223 0.953081 0.00972124 0.00959488 1.15572e-05 0.00966426 1.70107e-07 272.821 
-0.49 -0.25 -0.0196919 1.64103 0.00968663 0.00954412 -4.15402e-05 0.00961769 1.69515e-07 272.454 
-0.47 -0.25 -0.12566 1.52636 0.00969466 0.00954685 -3.83236e-05 0.00962498 1.69651e-07 272.441 
-0.45 -0.25 -0.36464 1.68289 0.00969832 0.0095199 -3.64384e-05 0.00962369 1.69582e-07 272.516 
-0.49 -0.23 0.0605351 1.73805 0.00968161 0.00954967 -4.94116e-05 0.00962117 1.69553e-07 272.491 
-0.47 -0.23 -0.223541 1.63089 0.00968811 0.00953529 -4.52547e-05 0.00962387 1.69683e-07 272.359 
-0.45 -0.23 -0.431346 1.96889 0.00968943 0.0095188 -3.59651e-05 0.0096163 1.69548e-07 272.362 
-0.49 -0.21 -0.0985051 1.71728 0.0096878 0.00955134 -5.01609e-05 0.00962477 1.69705e-07 272.35 
-0.43 -0.23 -0.459129 1.83311 0.00969376 0.0095301 -3.46371e-05 0.00961933 1.69371e-07 272.732 
-0.47 -0.21 -0.129677 1.94216 0.00968974 0.009529 -4.47725e-05 0.00962244 1.69686e-07 272.313 
-0.41 -0.23 -0.575599 1.83275 0.00969732 0.00952424 -2.75808e-05 0.00961737 1.69568e-07 272.36 
-0.45 -0.21 -0.30138 2.05752 0.00969415 0.00951873 -4.23213e-05 0.00960682 1.6954e-07 272.106 
-0.49 -0.19 -0.131574 1.97433 0.009688 0.00953615 -5.95505e-05 0.00961818 1.69668e-07 272.223 
-0.39 -0.23 -0.819867 1.96089 0.00970074 0.00952565 -2.99734e-05 0.00961826 1.69629e-07 272.286 
-0.43 -0.21 -0.464329 1.98152 0.00970122 0.00951811 -3.69807e-05 0.00960721 1.69348e-07 272.425 
-0.47 -0.19 -0.283666 1.95861 0.00969735 0.00952992 -5.41727e-05 0.00962772 1.69678e-07 272.476 
-0.41 -0.21 -0.734998 1.9276 0.00969994 0.00952428 -3.14275e-05 0.00961211 1.6943e-07 272.433 
-0.45 -0.19 -0.278354 2.1141 0.00969688 0.00951435 -4.51783e-05 0.00960883 1.69414e-07 272.365 
-0.49 -0.17 -0.061532 2.15735 0.00968485 0.00952813 -6.09516e-05 0.00961052 1.69611e-07 272.096 
-0.39 -0.21 -0.783925 2.09968 0.00970848 0.00952423 -3.22213e-05 0.0096189 1.69616e-07 272.327 
-0.43 -0.19 -0.4254 2.16012 0.00969708 0.00951002 -4.11192e-05 0.00960055 1.69277e-07 272.351 
-0.47 -0.17 -0.121604 2.0727 0.00968486 0.00951803 -5.33819e-05 0.00961087 1.6954e-07 272.22 
-0.41 -0.19 -0.593238 2.25931 0.00971124 0.00952363 -3.60503e-05 0.00961966 1.69635e-07 272.316 
-0.45 -0.17 -0.355418 2.2861 0.0096934 0.0095121 -5.15325e-05 0.00961158 1.69529e-07 272.259 
-0.49 -0.15 -0.0491049 2.31956 0.00968147 0.00951179 -6.67721e-05 0.00960708 1.69538e-07 272.117 
-0.39 -0.19 -1.05547 2.34319 0.00971209 0.0095145 -2.85524e-05 0.00961233 1.69507e-07 272.315 
-0.43 -0.17 -0.621856 2.36322 0.0097016 0.00950721 -4.75688e-05 0.00960855 1.69488e-07 272.239 
-0.47 -0.15 -0.257326 2.18383 0.00968837 0.00951467 -5.81087e-05 0.00961161 1.69548e-07 272.228 
-0.41 -0.17 -0.883835 2.42833 0.00970216 0.00951781 -4.09228e-05 0.00961401 1.69541e-07 272.307 
-0.45 -0.15 -0.476119 2.49735 0.00969594 0.00950924 -5.44636e-05 0.00961092 1.69533e-07 272.234 
-0.39 -0.17 -0.898878 2.65095 0.00970141 0.00950711 -3.3602e-05 0.00961599 1.69605e-07 272.261 
-0.43 -0.15 -0.433574 2.51562 0.00969711 0.0094947 -4.95181e-05 0.00960091 1.69382e-07 272.192 
-0.41 -0.15 -0.501479 2.56787 0.00969251 0.00951329 -3.76058e-05 0.00961009 1.69529e-07 272.215 
-0.39 -0.15 -0.729536 2.83717 0.00968985 0.00950615 -3.92608e-05 0.00960115 1.6946e-07 272.073 
-0.49 -0.27 -0.12421 1.60587 0.00970285 0.00955099 -4.12151e-05 0.00963172 1.69693e-07 272.566 
-0.43 -0.25 -0.559405 1.80875 0.00969999 0.00954049 -2.80964e-05 0.00962471 1.69629e-07 272.469 
-0.41 -0.25 -0.553023 1.65177 0.00970449 0.00952478 -2.25191e-05 0.00962153 1.6963e-07 272.377 
-0.39 -0.25 -0.798077 1.5808 0.00970902 0.00952341 -2.59038e-05 0.00962192 1.69464e-07 272.656 
-0.33 -0.25 -1.48805 1.88635 0.0097155 0.00953374 -6.42787e-06 0.00962952 1.69718e-07 272.462 
-0.37 -0.25 -0.89852 2.05881 0.00971341 0.00953581 -1.74606e-05 0.00962861 1.69725e-07 272.426 
-0.35 -0.25 -1.08772 1.75605 0.00970833 0.00952778 -7.9599e-06 0.00962545 1.69699e-07 272.377 
-0.37 -0.23 -1.00593 2.02806 0.00970185 0.00952205 -2.26466e-05 0.00961971 1.69442e-07 272.628 
-0.35 -0.23 -1.10039 2.0393 0.00971273 0.00952636 -1.05351e-05 0.00962379 1.69581e-07 272.52 
-0.37 -0.21 -0.877839 2.20031 0.00970895 0.00951407 -2.68231e-05 0.0096187 1.69487e-07 272.528 
-0.35 -0.21 -1.22214 2.29651 0.00971507 0.00951733 -2.53066e-05 0.00962449 1.69511e-07 272.653 
-0.37 -0.19 -1.31819 2.31208 0.0097128 0.00951967 -2.69774e-05 0.00961918 1.69527e-07 272.477 
-0.35 -0.19 -1.27109 2.39282 0.00971242 0.0095153 -3.1182e-05 0.00961258 1.69528e-07 272.288 
-0.37 -0.17 -1.05321 2.42523 0.00970731 0.00951821 -3.07928e-05 0.00961673 1.69531e-07 272.4 
-0.35 -0.17 -1.16672 2.32162 0.00970732 0.00951505 -2.76175e-05 0.00962112 1.6962e-07 272.382 
-0.33 -0.17 -1.27297 2.26396 0.00970464 0.00951759 -2.30352e-05 0.00962032 1.69655e-07 272.303 
-0.37 -0.15 -0.930571 2.48912 0.00969509 0.009515 -3.10252e-05 0.00961423 1.69603e-07 272.214 
-0.35 -0.15 -1.06329 2.50822 0.00969756 0.00951135 -3.0272e-05 0.00960761 1.69391e-07 272.368 
-0.33 -0.15 -1.39789 2.51865 0.00970646 0.0095126 -2.90435e-05 0.00961904 1.69465e-07 272.572 
-0.37 -0.13 -1.22755 2.79351 0.00969996 0.00951153 -3.59255e-05 0.00961294 1.694e-07 272.505 
-0.35 -0.13 -1.31702 2.53676 0.00970423 0.00951008 -3.74041e-05 0.00960895 1.69402e-07 272.387 
-0.33 -0.13 -1.38393 2.9051 0.00969924 0.0095085 -2.81394e-05 0.00960847 1.69389e-07 272.395 
-0.37 -0.11 -1.06501 2.93653 0.00969481 0.00950721 -4.27508e-05 0.00960745 1.69336e-07 272.451 
-0.35 -0.11 -1.29635 2.72576 0.00969789 0.00950235 -3.10087e-05 0.00960279 1.69344e-07 272.306 
-0.33 -0.11 -1.58931 3.10527 0.00969628 0.00950202 -2.37643e-05 0.00960345 1.69305e-07 272.389 
-0.35 -0.09 -1.1488 3.08245 0.00968417 0.00949577 -3.34339e-05 0.00958544 1.69171e-07 272.092 
-0.49 -0.13 -0.147987 2.40536 0.00967054 0.00951347 -7.61263e-05 0.00960019 1.69204e-07 272.458 
-0.47 -0.13 -0.316686 2.51391 0.00967537 0.00950745 -6.92222e-05 0.00959887 1.69402e-07 272.102 
-0.45 -0.13 -0.415037 2.47212 0.0096796 0.00950063 -5.56366e-05 0.00959499 1.69249e-07 272.238 
-0.49 -0.11 0.100494 2.62569 0.00967358 0.00951173 -7.62108e-05 0.00959495 1.69178e-07 272.351 
-0.43 -0.13 -0.635629 2.67544 0.00968866 0.00949151 -5.44192e-05 0.00959467 1.69411e-07 271.968 
-0.47 -0.11 -0.0684264 2.59147 0.0096727 0.00949994 -6.94983e-05 0.00958423 1.69093e-07 272.183 
-0.41 -0.13 -0.934728 2.80857 0.00969514 0.00950315 -4.38502e-05 0.00960381 1.69398e-07 272.249 
-0.45 -0.11 -0.321078 2.73434 0.00967492 0.00949432 -6.74218e-05 0.00959191 1.69133e-07 272.337 
-0.49 -0.09 -0.00688992 2.60399 0.00966369 0.00949921 -7.80878e-05 0.00958484 1.69008e-07 272.337 
-0.39 -0.13 -1.07731 2.97976 0.00969915 0.00950301 -3.53706e-05 0.00960118 1.69278e-07 272.367 
-0.43 -0.11 -0.611804 2.95371 0.00967084 0.00948107 -5.68378e-05 0.00957852 1.69036e-07 272.113 
-0.47 -0.09 -0.199112 2.78784 0.00966673 0.00949245 -7.2312e-05 0.00958203 1.68913e-07 272.411 
-0.41 -0.11 -0.775163 2.9293 0.00967839 0.00949359 -5.16872e-05 0.00958982 1.69141e-07 272.265 
-0.45 -0.09 -0.429318 3.07079 0.00966776 0.0094909 -6.55354e-05 0.00957987 1.6893e-07 272.322 
-0.39 -0.11 -0.88925 3.14427 0.00969098 0.00950295 -4.25947e-05 0.00959253 1.6911e-07 272.392 
-0.43 -0.09 -0.654769 3.17199 0.00967434 0.00947561 -6.08597e-05 0.0095778 1.69017e-07 272.123 
-0.41 -0.09 -0.678066 2.96254 0.00967703 0.00948595 -5.5569e-05 0.00957854 1.68803e-07 272.489 
-0.39 -0.09 -0.814 3.35201 0.00968373 0.00949679 -5.37515e-05 0.009588 1.68912e-07 272.583 
-0.37 -0.09 -0.88161 2.97897 0.00968024 0.00949762 -3.67709e-05 0.00958874 1.69022e-07 272.426 
-0.35 -0.03 -1.17407 3.55827 0.00965444 0.00949446 -4.46058e-05 0.00958754 1.69213e-07 272.085 
-0.37 -0.07 -1.14196 3.32972 0.00966198 0.00949395 -4.2412e-05 0.00958122 1.68948e-07 272.332 
-0.41 -0.05 -0.758282 3.53801 0.00964739 0.00947335 -5.81292e-05 0.00956563 1.68664e-07 272.347 
-0.45 -0.03 -0.477277 3.42717 0.00962279 0.00946357 -8.75127e-05 0.00955817 1.68684e-07 272.101 
-0.35 -0.07 -1.35564 3.24937 0.00966848 0.00949349 -3.46287e-05 0.00958556 1.68917e-07 272.505 
-0.39 -0.05 -0.9641 3.42451 0.0096547 0.00946981 -5.04145e-05 0.00956606 1.68895e-07 271.986 
-0.43 -0.03 -0.533605 3.73831 0.00963021 0.00945369 -7.45009e-05 0.00955307 1.68581e-07 272.122 
-0.33 -0.07 -1.5789 3.53554 0.00967938 0.00949948 -3.45861e-05 0.0095884 1.69029e-07 272.406 
-0.37 -0.05 -1.15889 3.47317 0.00966184 0.00948888 -4.38354e-05 0.00958671 1.69015e-07 272.38 
-0.41 -0.03 -0.749231 3.78166 0.00963468 0.00946269 -6.93451e-05 0.0095551 1.68571e-07 272.197 
-0.35 -0.05 -1.42326 3.58075 0.00966568 0.00949399 -4.91355e-05 0.00958651 1.68914e-07 272.537 
-0.39 -0.03 -0.948983 3.72031 0.00963928 0.00946235 -6.16511e-05 0.00955959 1.68761e-07 272.018 
-0.33 -0.05 -1.32902 3.40384 0.00966891 0.0094925 -4.27793e-05 0.00958786 1.6905e-07 272.357 
-0.37 -0.03 -1.13252 3.69692 0.00965172 0.00948354 -5.46565e-05 0.00957665 1.68837e-07 272.381 
-0.33 -0.03 -1.40999 3.48336 0.00966576 0.00949115 -4.69751e-05 0.00958751 1.69168e-07 272.157 
-0.49 -0.07 -0.137675 2.69256 0.00963119 0.00948501 -8.88124e-05 0.00956902 1.68751e-07 272.302 
-0.47 -0.07 -0.157612 3.02963 0.00965292 0.00949177 -8.30605e-05 0.00957737 1.68967e-07 272.191 
-0.45 -0.07 -0.358924 3.32375 0.00965945 0.00947477 -7.16102e-05 0.00957383 1.68893e-07 272.211 
-0.49 -0.05 -0.106369 2.91272 0.00962751 0.00947597 -9.70817e-05 0.00956471 1.68735e-07 272.206 
-0.43 -0.07 -0.505972 3.25764 0.00966667 0.00947716 -5.93335e-05 0.00957341 1.68974e-07 272.069 
-0.47 -0.05 -0.203133 3.07408 0.00962357 0.00947382 -8.63362e-05 0.00955892 1.6874e-07 272.032 
-0.41 -0.07 -0.78899 3.19434 0.00966671 0.00948171 -6.27267e-05 0.00958018 1.69013e-07 272.197 
-0.45 -0.05 -0.256818 3.44887 0.00963345 0.0094686 -7.98446e-05 0.00956151 1.68611e-07 272.315 
-0.49 -0.03 -0.126024 3.05901 0.0096087 0.00946646 -0.000101482 0.00955055 1.68413e-07 272.322 
-0.39 -0.07 -1.00889 3.33575 0.0096623 0.00947968 -4.76376e-05 0.00957201 1.68888e-07 272.166 
-0.43 -0.05 -0.47573 3.50925 0.00964093 0.00947005 -7.20522e-05 0.00956629 1.68779e-07 272.18 
-0.47 -0.03 -0.335716 3.30903 0.00961627 0.00947101 -9.30889e-05 0.00955103 1.68588e-07 272.053 
-0.27 -0.07 -1.77894 2.60256 0.00968911 0.00954595 -3.03714e-05 0.00962541 1.69625e-07 272.496 
-0.31 -0.05 -1.52484 3.3422 0.00968318 0.00951637 -4.08673e-05 0.00960678 1.69306e-07 272.481 
-0.27 -0.09 -1.99138 2.63137 0.00970125 0.00955175 -2.28132e-05 0.00963087 1.69854e-07 272.282 
-0.31 -0.07 -1.50235 3.06906 0.00967838 0.00951356 -3.22599e-05 0.00960144 1.69217e-07 272.472 
-0.29 -0.07 -1.77059 3.04393 0.00968371 0.00953324 -3.49714e-05 0.00961729 1.6949e-07 272.483 
-0.25 -0.07 -1.81166 2.66193 0.00969372 0.00956383 -2.35591e-05 0.00963297 1.69901e-07 272.267 
-0.29 -0.05 -1.58977 3.03561 0.00968411 0.00952644 -3.20236e-05 0.00961059 1.69442e-07 272.37 
-0.27 -0.05 -1.85554 2.86399 0.00968025 0.00954032 -3.40621e-05 0.00962146 1.69508e-07 272.573 
-0.31 -0.03 -1.63237 3.53068 0.009664 0.00950799 -4.02585e-05 0.00959636 1.69263e-07 272.255 
-0.25 -0.05 -2.10326 2.76575 0.00967837 0.0095546 -2.13643e-05 0.00961961 1.69456e-07 272.604 
-0.29 -0.03 -1.86323 3.25115 0.00966583 0.00952843 -4.29413e-05 0.00960814 1.69359e-07 272.435 
-0.27 -0.03 -1.94434 3.06179 0.00968206 0.00952914 -3.17749e-05 0.00961148 1.6961e-07 272.125 
-0.25 -0.03 -1.96745 2.81939 0.00969113 0.00956476 -3.5033e-05 0.0096277 1.69602e-07 272.597 
-0.31 -0.25 -1.59086 1.5365 0.00971478 0.00954791 -9.90661e-06 0.00963514 1.69679e-07 272.684 
-0.29 -0.25 -1.7383 1.50472 0.00971962 0.00956383 -1.21045e-05 0.00963987 1.69765e-07 272.68 
-0.27 -0.25 -1.63818 1.6348 0.00972763 0.00957155 -6.31295e-06 0.00965585 1.69954e-07 272.828 
-0.29 -0.11 -1.85214 2.55193 0.00970951 0.00953992 -2.24935e-05 0.00962892 1.69751e-07 272.392 
-0.33 -0.09 -1.38936 3.3903 0.00968168 0.00950152 -3.32332e-05 0.00959439 1.69213e-07 272.279 
-0.27 -0.11 -1.88349 2.50523 0.00970856 0.00955119 -1.34372e-05 0.00964036 1.6991e-07 272.462 
-0.31 -0.09 -1.56543 3.01264 0.00968529 0.00951392 -2.8221e-05 0.0096075 1.69393e-07 272.36 
-0.29 -0.09 -1.78735 2.6773 0.00969311 0.00953502 -2.74146e-05 0.00962439 1.69626e-07 272.465 
-0.33 -0.23 -1.24939 2.00286 0.00971759 0.00953355 -1.25247e-05 0.00962985 1.6968e-07 272.534 
-0.31 -0.23 -1.57653 1.77515 0.00972843 0.00955012 -1.514e-05 0.00963821 1.69793e-07 272.587 
-0.29 -0.23 -1.82277 1.66736 0.00973456 0.00956679 -1.28346e-05 0.0096484 1.69848e-07 272.787 
-0.33 -0.21 -1.29056 2.03702 0.00972361 0.00953419 -1.80247e-05 0.00963514 1.69759e-07 272.556 
-0.27 -0.23 -2.02322 1.6242 0.00972881 0.00956508 -1.09485e-05 0.00965225 1.70025e-07 272.613 
-0.31 -0.21 -1.34736 2.15958 0.00972327 0.00955033 -1.67573e-05 0.00964163 1.69836e-07 272.616 
-0.29 -0.21 -1.57991 1.81567 0.00971771 0.00955697 -1.32259e-05 0.00964095 1.69786e-07 272.676 
-0.33 -0.19 -1.2013 2.03551 0.0097156 0.00952694 -2.69505e-05 0.00962973 1.69622e-07 272.622 
-0.27 -0.21 -1.86079 1.95863 0.00971237 0.00956456 1.78399e-07 0.00964299 1.69806e-07 272.702 
-0.31 -0.19 -1.32092 2.20216 0.00971806 0.00954422 -1.39629e-05 0.00963938 1.69771e-07 272.656 
-0.25 -0.21 -2.06957 1.60759 0.00971934 0.00956327 -3.03757e-06 0.0096444 1.69794e-07 272.762 
-0.29 -0.19 -1.537 2.01919 0.00971013 0.00954705 -5.72063e-06 0.00963206 1.69648e-07 272.648 
-0.27 -0.19 -1.70495 2.14008 0.00971882 0.00956527 -8.93094e-06 0.00964284 1.69926e-07 272.505 
-0.31 -0.17 -1.51939 2.24915 0.00970455 0.00953476 -1.60302e-05 0.00962581 1.69575e-07 272.587 
-0.25 -0.19 -1.89619 1.97275 0.00972492 0.00956186 -8.52027e-06 0.0096517 1.70051e-07 272.556 
-0.29 -0.17 -1.67946 2.41641 0.00972208 0.00955182 -1.12443e-05 0.00963925 1.69862e-07 272.507 
-0.27 -0.17 -1.81947 2.0986 0.00972149 0.00956472 -1.91899e-05 0.00964761 1.70003e-07 272.518 
-0.31 -0.15 -1.6997 2.52531 0.00971443 0.00953668 -2.40799e-05 0.00962929 1.69697e-07 272.491 
-0.25 -0.17 -1.76523 2.15582 0.0097134 0.00955609 -6.44393e-06 0.00964293 1.7001e-07 272.373 
-0.29 -0.15 -1.74018 2.49467 0.00970627 0.00953772 -1.62826e-05 0.00962561 1.6969e-07 272.397 
-0.27 -0.15 -1.88195 2.14763 0.00970543 0.00956622 -8.23156e-06 0.00964147 1.6999e-07 272.364 
-0.31 -0.13 -1.62631 2.68216 0.00969348 0.00952251 -1.79513e-05 0.00961371 1.69404e-07 272.52 
-0.25 -0.15 -1.95789 2.15592 0.00970794 0.00955374 -9.24249e-06 0.00964021 1.69883e-07 272.501 
-0.29 -0.13 -1.76582 2.50116 0.00969694 0.00953643 -1.78815e-05 0.00962214 1.69593e-07 272.454 
-0.27 -0.13 -1.86314 2.40317 0.00970565 0.00955921 -1.43593e-05 0.00963943 1.69836e-07 272.553 
-0.31 -0.11 -1.78135 2.8046 0.00970277 0.00951678 -2.76634e-05 0.00961471 1.6949e-07 272.41 