ITEM: TIMESTEP
829500
ITEM: NUMBER OF CELLS
2500
ITEM: BOX BOUNDS ss ss pp
-0.5 0.5
-0.5 0.5
-0.5 0.5
ITEM: CELLS xc yc f_U[*] f_V[*] f_Tau[1] f_Tau[2] f_Tau[3] f_Press[*] f_Mrho[*] f_Ttra[*] 
-0.49 -0.49 -0.147112 0.375496 0.00966848 0.00954769 9.46224e-06 0.00959849 1.69624e-07 271.735 
-0.47 -0.49 -0.298823 -0.00376855 0.00964539 0.00957477 5.14596e-06 0.00962652 1.69457e-07 272.797 
-0.45 -0.49 -0.613478 0.164438 0.00965648 0.00953972 9.47183e-06 0.00960901 1.69238e-07 272.654 
-0.49 -0.47 0.0239025 0.516627 0.00965323 0.00954379 1.74753e-05 0.00960989 1.69709e-07 271.921 
-0.43 -0.49 -0.586606 0.136779 0.00964946 0.00956317 -1.76621e-05 0.00960798 1.69607e-07 272.031 
-0.47 -0.47 -0.359517 0.618393 0.00967137 0.00957168 3.6683e-06 0.00962072 1.69457e-07 272.633 
-0.41 -0.49 -0.750739 -0.0272385 0.00967807 0.00956454 -1.20431e-05 0.00961804 1.69636e-07 272.269 
-0.45 -0.47 -0.904828 0.304334 0.00970096 0.00955406 -1.80964e-05 0.00962938 1.69579e-07 272.683 
-0.49 -0.45 0.0175531 0.641124 0.00968165 0.00954241 -3.45626e-05 0.00962182 1.69926e-07 271.911 
-0.39 -0.49 -1.09109 0.0651755 0.00970139 0.00962144 2.60377e-05 0.00966733 1.69806e-07 273.391 
-0.43 -0.47 -0.884664 -0.153713 0.00970342 0.00958347 -1.50877e-05 0.00963908 1.69843e-07 272.532 
-0.47 -0.45 -0.189627 0.970079 0.00972009 0.00958394 -7.01836e-06 0.00965627 1.69645e-07 273.336 
-0.37 -0.49 -0.73238 0.0694951 0.00968789 0.00958063 2.47015e-05 0.00963321 1.69362e-07 273.14 
-0.41 -0.47 -1.06285 0.259806 0.00968782 0.00955075 -3.87285e-06 0.00962173 1.69626e-07 272.389 
-0.45 -0.45 -0.181269 0.44677 0.0096864 0.00955132 -1.00251e-05 0.0096253 1.69412e-07 272.835 
-0.49 -0.43 -0.121126 0.66777 0.00970826 0.00956308 -1.42782e-05 0.00963992 1.69852e-07 272.541 
-0.35 -0.49 -0.840747 -0.0335516 0.00968292 0.00956133 4.92005e-06 0.00960504 1.68978e-07 272.959 
-0.39 -0.47 -0.699242 0.308386 0.00967397 0.00959898 2.5541e-07 0.00963012 1.69701e-07 272.506 
-0.43 -0.45 -0.895736 0.17129 0.0096899 0.00957036 -1.80232e-07 0.00962854 1.69655e-07 272.536 
-0.47 -0.43 0.0767322 0.556733 0.00968258 0.00955362 -3.24032e-05 0.00963454 1.69738e-07 272.573 
-0.37 -0.47 -0.650899 -0.425186 0.00968879 0.00956323 1.95941e-05 0.00963964 1.69622e-07 272.903 
-0.41 -0.45 -0.943303 0.188277 0.00970142 0.00955973 4.41018e-06 0.00963867 1.69651e-07 272.829 
-0.45 -0.43 0.156313 0.881393 0.00970729 0.00956404 4.31518e-06 0.00964618 1.70019e-07 272.451 
-0.49 -0.41 0.165261 0.735691 0.00968339 0.00958016 -7.74955e-06 0.00963961 1.70022e-07 272.26 
-0.35 -0.47 -0.711627 -0.177058 0.00970048 0.00958822 2.20326e-05 0.009646 1.6957e-07 273.167 
-0.39 -0.45 -0.671099 -0.380549 0.00968915 0.00958342 4.74296e-06 0.00963498 1.70037e-07 272.106 
-0.43 -0.43 0.0768995 0.324748 0.00971341 0.00956224 -8.42043e-06 0.00962675 1.69474e-07 272.776 
-0.47 -0.41 0.105301 0.436105 0.00970286 0.00955764 -1.57077e-05 0.00965306 1.70063e-07 272.575 
-0.37 -0.45 -0.757274 0.086705 0.00968585 0.0095585 6.30408e-06 0.00962471 1.69742e-07 272.289 
-0.41 -0.43 0.0597786 0.0898503 0.00969606 0.00954887 2.223e-06 0.00962392 1.69537e-07 272.596 
-0.45 -0.41 -0.108209 1.07126 0.00969625 0.00955221 -8.38174e-06 0.00963084 1.70022e-07 272.013 
-0.49 -0.39 -0.0364639 0.835867 0.0097365 0.00958675 -1.07546e-05 0.00968034 1.70092e-07 273.299 
-0.35 -0.45 -1.03175 -0.227917 0.00969173 0.00958631 1.25316e-05 0.0096566 1.70171e-07 272.501 
-0.39 -0.43 -0.970384 0.173429 0.00969761 0.00956976 4.66993e-06 0.00963154 1.70125e-07 271.868 
-0.43 -0.41 -0.0531356 0.0117471 0.00968269 0.0095576 -4.12128e-06 0.00961231 1.69526e-07 272.284 
-0.47 -0.39 -0.0510031 0.319214 0.00969972 0.00954858 -1.38886e-05 0.00963288 1.69912e-07 272.247 
-0.37 -0.43 -1.49044 0.126579 0.00971106 0.00957271 8.55082e-06 0.00963487 1.69936e-07 272.265 
-0.41 -0.41 -0.311376 0.838739 0.00970638 0.00953147 -7.89734e-06 0.00961921 1.69877e-07 271.916 
-0.45 -0.39 0.211494 1.31326 0.00969194 0.0095503 -1.28122e-05 0.00963198 1.70249e-07 271.683 
-0.35 -0.43 -1.13672 -0.0721218 0.00972367 0.00958326 -4.51779e-06 0.00965377 1.69881e-07 272.886 
-0.39 -0.41 -0.69355 0.724294 0.00971898 0.00957718 -1.05341e-05 0.00965125 1.69929e-07 272.738 
-0.43 -0.39 -0.38914 0.354449 0.00972669 0.00956831 -1.69355e-05 0.00964188 1.69698e-07 272.845 
-0.37 -0.41 -0.845548 0.15803 0.00972628 0.00956994 -7.64951e-06 0.00964433 1.69891e-07 272.604 
-0.41 -0.39 -0.597524 0.895755 0.00971985 0.0095352 -2.1189e-05 0.00962855 1.69774e-07 272.345 
-0.35 -0.41 -1.10253 -0.0611814 0.00971351 0.00956438 1.71485e-05 0.00964086 1.69549e-07 273.056 
-0.39 -0.39 -0.335938 0.555813 0.00972309 0.00958385 5.23119e-06 0.0096564 1.70001e-07 272.769 
-0.37 -0.39 -0.893087 0.625817 0.00968609 0.00955167 1.30655e-06 0.00962833 1.69801e-07 272.296 
-0.41 -0.37 -0.587509 0.555403 0.00969172 0.00954061 -2.70528e-05 0.00962305 1.6939e-07 272.807 
-0.35 -0.39 -1.05725 0.326172 0.00968544 0.00956116 6.75997e-06 0.00964861 1.69945e-07 272.638 
-0.33 -0.39 -1.29654 0.128325 0.00970837 0.00955615 1.43365e-05 0.00963031 1.69816e-07 272.328 
-0.33 -0.49 -0.632812 -0.12449 0.00968634 0.00958296 1.87258e-05 0.00963103 1.69337e-07 273.119 
-0.33 -0.47 -0.853591 0.290511 0.00969564 0.00959779 9.531e-06 0.00965954 1.70002e-07 272.856 
-0.33 -0.43 -1.30565 0.0261475 0.00970336 0.00955918 2.63594e-05 0.00964905 1.69658e-07 273.112 
-0.49 -0.37 -0.224582 0.96626 0.00970692 0.00959543 6.18455e-06 0.00964732 1.69588e-07 273.175 
-0.47 -0.37 -0.215738 0.27383 0.00970067 0.00956142 1.11193e-05 0.00963807 1.69354e-07 273.29 
-0.45 -0.37 -0.309937 1.48776 0.00970662 0.00957494 -2.40656e-05 0.00963894 1.69587e-07 272.939 
-0.49 -0.35 0.0403231 0.995706 0.00970439 0.00957505 -9.94544e-06 0.00964163 1.69565e-07 273.052 
-0.43 -0.37 -0.19468 0.912621 0.00969814 0.00956078 -2.96398e-05 0.00962836 1.69623e-07 272.583 
-0.47 -0.35 0.204377 0.274689 0.0097331 0.0095826 -7.57482e-06 0.00965799 1.69648e-07 273.381 
-0.45 -0.35 0.0483722 1.29491 0.00972375 0.00959604 -1.42703e-05 0.00966025 1.70056e-07 272.788 
-0.49 -0.33 0.192666 0.627707 0.00967488 0.00957842 -2.51633e-05 0.00963325 1.6927e-07 273.289 
-0.39 -0.37 -0.385451 0.81536 0.00968957 0.00954102 -5.06564e-06 0.00962995 1.69515e-07 272.802 
-0.43 -0.35 -0.118735 1.3646 0.00970424 0.00956168 -1.58494e-05 0.00963391 1.69759e-07 272.52 
-0.47 -0.33 -0.141921 0.76094 0.00968412 0.00956903 -2.04516e-05 0.00963918 1.69719e-07 272.734 
-0.37 -0.37 -0.290213 0.722618 0.0097119 0.00957582 7.92938e-06 0.0096445 1.69795e-07 272.763 
-0.41 -0.35 -0.548902 0.566481 0.00970343 0.00953385 -1.59367e-05 0.00962906 1.69799e-07 272.32 
-0.45 -0.33 -0.165738 1.41033 0.0097007 0.00961461 3.2809e-07 0.00966563 1.69984e-07 273.056 
-0.49 -0.31 -0.113554 0.749014 0.00971364 0.00959573 -2.20807e-05 0.00965554 1.70017e-07 272.718 
-0.39 -0.35 -0.782109 0.748638 0.00969992 0.00953741 -2.40121e-05 0.00964203 1.6998e-07 272.397 
-0.43 -0.33 -0.335535 1.27937 0.00969307 0.00956559 -2.0239e-05 0.00962338 1.69552e-07 272.556 
-0.47 -0.31 -0.281852 1.02636 0.00970258 0.00955377 -2.85949e-05 0.00963774 1.69978e-07 272.279 
-0.37 -0.35 -0.51186 0.656418 0.00971198 0.00955061 -9.03468e-06 0.00963394 1.69552e-07 272.854 
-0.41 -0.33 -0.617743 1.08987 0.0097068 0.00953482 -1.99622e-05 0.00962346 1.69637e-07 272.421 
-0.45 -0.31 -0.48491 1.46955 0.00971314 0.0096022 -3.0554e-05 0.00966677 1.69912e-07 273.204 
-0.49 -0.29 0.0127036 1.21104 0.00974702 0.00958515 -2.59062e-05 0.00966848 1.70032e-07 273.059 
-0.35 -0.35 -0.596623 1.15403 0.00973189 0.00955479 -3.35282e-06 0.00963404 1.69869e-07 272.349 
-0.39 -0.33 -1.02258 0.919438 0.00971538 0.00955176 -1.99117e-05 0.00964606 1.70274e-07 272.04 
-0.43 -0.31 -0.256017 1.5167 0.00975944 0.00959432 -2.7028e-05 0.00966974 1.70067e-07 273.039 
-0.47 -0.29 0.121578 1.09213 0.00975762 0.00956965 -3.86307e-05 0.00967418 1.70137e-07 273.052 
-0.37 -0.33 -1.0194 0.739494 0.00970837 0.00952436 -2.19422e-05 0.00963583 1.69938e-07 272.288 
-0.41 -0.31 -0.352768 1.72524 0.00974827 0.00952494 -1.2485e-05 0.00965567 1.70216e-07 272.404 
-0.45 -0.29 -0.150536 1.41137 0.00975437 0.00959209 -3.61355e-05 0.00970288 1.69995e-07 274.091 
-0.35 -0.33 -0.963601 1.04323 0.00970839 0.00956341 -1.73418e-05 0.00965437 1.69916e-07 272.847 
-0.39 -0.31 -0.872429 1.30602 0.0097316 0.0095299 -2.44944e-05 0.00965354 1.69915e-07 272.825 
-0.43 -0.29 -0.0849065 1.33653 0.00972685 0.00956272 -2.54869e-05 0.00965552 1.69957e-07 272.814 
-0.47 -0.27 -0.237976 0.92307 0.00973016 0.00959097 -2.97855e-05 0.00966079 1.69659e-07 273.442 
-0.33 -0.33 -0.93241 1.04369 0.00970839 0.00955034 -8.06028e-06 0.00963761 1.70302e-07 271.757 
-0.37 -0.31 -1.44486 0.872724 0.00971231 0.0095438 -1.825e-05 0.00965048 1.69614e-07 273.222 
-0.41 -0.29 -0.095932 1.82606 0.00973002 0.00953286 -1.80785e-05 0.00966349 1.69846e-07 273.218 
-0.45 -0.27 0.365506 1.32229 0.00973042 0.00957976 -3.27081e-05 0.00966343 1.70316e-07 272.462 
-0.35 -0.31 -1.52266 1.07484 0.00972629 0.0095461 -1.56117e-05 0.00965957 1.70297e-07 272.384 
-0.39 -0.29 -0.219652 1.75927 0.00973712 0.00952972 -9.76302e-06 0.00964424 1.70033e-07 272.373 
-0.43 -0.27 0.232412 1.77081 0.00970727 0.00955884 -1.8316e-05 0.00963108 1.69839e-07 272.313 
-0.37 -0.29 -0.584229 1.25358 0.00974866 0.00955284 -1.06152e-05 0.00964863 1.69797e-07 272.877 
-0.41 -0.27 -0.0663631 1.79194 0.00969449 0.00952015 -2.10242e-05 0.00961564 1.69592e-07 272.272 
-0.35 -0.29 -0.756481 1.28439 0.00973657 0.00954164 -1.86045e-05 0.00965067 1.70107e-07 272.436 
-0.39 -0.27 0.216595 1.55005 0.00970813 0.0095286 -1.02097e-05 0.00962671 1.69718e-07 272.383 
-0.33 -0.29 -0.691893 1.23698 0.00972713 0.00954884 -1.65443e-05 0.00964886 1.70167e-07 272.289 
-0.37 -0.27 0.0746674 1.77201 0.00971199 0.00956401 -1.04133e-05 0.0096486 1.69912e-07 272.691 
-0.35 -0.27 -0.711807 1.48682 0.00970463 0.00952925 -6.49553e-06 0.00961937 1.69437e-07 272.626 
-0.33 -0.27 -1.19727 1.53348 0.00969217 0.00955045 -5.24684e-06 0.00962876 1.69822e-07 272.274 
-0.35 -0.37 -1.03491 0.514789 0.00970768 0.00954902 -2.579e-07 0.00963865 1.69664e-07 272.807 
-0.33 -0.37 -1.38104 0.388804 0.00971197 0.00956518 -5.90559e-07 0.00963711 1.70036e-07 272.167 
-0.33 -0.35 -1.16138 0.634907 0.00974486 0.00956784 -1.30637e-05 0.00965474 1.70237e-07 272.343 
-0.33 -0.31 -1.4546 1.01663 0.00973145 0.00954113 -8.30407e-06 0.00966091 1.70404e-07 272.251 
-0.31 -0.49 -0.697676 -0.0324765 0.00970882 0.00962638 8.91545e-06 0.00966216 1.69836e-07 273.197 
-0.29 -0.49 -1.07572 0.287606 0.00969414 0.00961451 4.01506e-05 0.00965119 1.69906e-07 272.774 
-0.27 -0.49 -0.95589 -0.204225 0.009668 0.00960153 5.48509e-05 0.00965867 1.70095e-07 272.681 
-0.31 -0.47 -1.14516 0.139362 0.00966826 0.00958073 1.57258e-05 0.00963612 1.69427e-07 273.117 
-0.29 -0.47 -0.908947 0.27193 0.00967508 0.00958758 4.80131e-05 0.00964233 1.69629e-07 272.969 
-0.27 -0.47 -0.880886 -0.35052 0.00969846 0.00961503 4.27025e-05 0.00965556 1.70064e-07 272.643 
-0.31 -0.45 -1.08421 -0.0371965 0.00970111 0.00957461 3.13362e-05 0.00963716 1.69796e-07 272.554 
-0.29 -0.45 -1.21645 -0.0577518 0.00969377 0.00957366 3.1336e-05 0.00962981 1.69684e-07 272.525 
-0.27 -0.45 -1.16378 -0.0243836 0.00972844 0.00964057 1.78668e-05 0.00967785 1.70269e-07 272.944 
-0.31 -0.43 -1.20369 0.217375 0.00971332 0.00956838 2.86029e-05 0.00965076 1.69868e-07 272.823 
-0.29 -0.43 -1.18785 -0.0779619 0.00973093 0.00959154 1.09212e-05 0.00965508 1.69873e-07 272.936 
-0.27 -0.43 -1.29532 0.120377 0.00972666 0.00963671 1.49478e-05 0.00968722 1.7035e-07 273.079 
-0.31 -0.41 -1.21587 0.180532 0.00971021 0.00957173 1.9278e-05 0.00963897 1.69823e-07 272.561 
-0.25 -0.43 -1.60962 -0.0558628 0.00974207 0.00962737 1.24736e-05 0.0096831 1.70385e-07 272.906 
-0.29 -0.41 -1.54925 0.0878857 0.00971917 0.00959994 -1.05228e-05 0.00965397 1.69879e-07 272.895 
-0.27 -0.41 -1.82689 -0.0127299 0.00972844 0.00962381 -4.43109e-06 0.00967445 1.70039e-07 273.217 
-0.31 -0.39 -1.45822 0.0486293 0.00972887 0.00959227 -5.71011e-06 0.00964606 1.7018e-07 272.189 
-0.25 -0.41 -1.72197 0.465695 0.00971339 0.00963171 3.38296e-05 0.0096742 1.70302e-07 272.789 
-0.29 -0.39 -1.59978 0.650839 0.00972275 0.00961052 8.38011e-06 0.00965241 1.70491e-07 271.873 
-0.27 -0.39 -1.87808 -0.114898 0.00971261 0.00958851 5.95306e-06 0.0096491 1.69945e-07 272.652 
-0.31 -0.37 -1.15932 0.142801 0.00971361 0.00956883 3.20254e-06 0.00963538 1.69975e-07 272.215 
-0.25 -0.39 -1.48506 0.482233 0.00973084 0.00962844 8.94213e-06 0.00967853 1.70224e-07 273.035 
-0.29 -0.37 -1.51472 0.958804 0.00972184 0.00962091 2.10874e-06 0.00966345 1.69965e-07 273.025 
-0.27 -0.37 -1.59393 0.0857368 0.00973595 0.00959164 9.42599e-06 0.00965619 1.70128e-07 272.558 
-0.31 -0.35 -1.3872 0.608032 0.00974246 0.00957382 1.75652e-07 0.00964809 1.70128e-07 272.33 
-0.29 -0.35 -1.49061 0.570298 0.00973252 0.00960302 4.26665e-06 0.0096749 1.7035e-07 272.731 
-0.27 -0.35 -1.40756 0.588328 0.00972762 0.00960147 9.05147e-06 0.00965786 1.70071e-07 272.697 
-0.31 -0.33 -1.15463 0.836563 0.00971251 0.00957273 7.46439e-06 0.00965838 1.70301e-07 272.344 
-0.29 -0.33 -0.976589 0.513768 0.00972741 0.0095932 2.46156e-06 0.00967219 1.70546e-07 272.342 
-0.27 -0.33 -1.55161 0.993053 0.00973025 0.00960901 1.28732e-05 0.0096794 1.70394e-07 272.787 
-0.31 -0.31 -1.31198 0.731532 0.00974242 0.00956773 -1.05301e-05 0.00967666 1.70516e-07 272.516 
-0.29 -0.31 -1.64208 1.22016 0.00974963 0.00960126 -6.63069e-07 0.00969257 1.70555e-07 272.9 
-0.27 -0.31 -1.8263 0.953079 0.00972515 0.00959266 1.07098e-05 0.00966685 1.70695e-07 271.953 
-0.31 -0.29 -1.4319 1.30274 0.00971212 0.00955519 -1.36277e-05 0.00964713 1.70106e-07 272.338 
-0.25 -0.31 -1.94082 1.50045 0.00973516 0.00960288 2.30642e-05 0.00966946 1.70495e-07 272.346 
-0.29 -0.29 -1.80847 1.26658 0.00970118 0.0095766 8.66684e-06 0.00964183 1.7025e-07 271.959 
-0.27 -0.29 -2.22378 1.15704 0.00972646 0.00959176 1.53865e-05 0.00965452 1.70468e-07 271.968 
-0.31 -0.27 -1.26115 1.73386 0.00969108 0.00955278 -1.39919e-06 0.00963315 1.69876e-07 272.313 
-0.25 -0.29 -1.80616 1.03488 0.00973605 0.00962192 3.89536e-06 0.00967532 1.70513e-07 272.482 
-0.29 -0.27 -1.0956 1.47529 0.00970963 0.00955456 -9.48192e-06 0.00965311 1.70306e-07 272.187 
-0.27 -0.27 -1.3259 1.18636 0.00973185 0.00961221 -1.29582e-05 0.00968065 1.70347e-07 272.898 
-0.25 -0.27 -2.01352 1.19248 0.00973374 0.00960307 6.61419e-06 0.00966558 1.70444e-07 272.319 
-0.33 -0.45 -1.13613 0.46714 0.00970649 0.00959288 8.11762e-06 0.00966079 1.6993e-07 273.006 
-0.33 -0.41 -1.12133 0.376653 0.00971634 0.00956233 2.42014e-05 0.00964111 1.69991e-07 272.353 
-0.25 -0.49 -1.04842 -0.0394007 0.00968543 0.00962662 5.25388e-05 0.0096647 1.70219e-07 272.653 
-0.23 -0.49 -1.00509 0.131871 0.00970349 0.00960629 3.74972e-05 0.00965655 1.70161e-07 272.516 
-0.25 -0.47 -0.619848 0.011218 0.00972729 0.00963779 2.64833e-05 0.00967333 1.7047e-07 272.496 
-0.23 -0.47 -1.05944 0.513815 0.00974031 0.00963288 5.36763e-06 0.00968217 1.70548e-07 272.619 
-0.25 -0.45 -1.15581 0.115337 0.00973189 0.00962498 2.10497e-05 0.00968776 1.70227e-07 273.291 
-0.23 -0.45 -1.53528 0.910363 0.00973303 0.00963694 3.02541e-05 0.00967329 1.70263e-07 272.825 
-0.25 -0.37 -1.6962 -0.0335135 0.00972386 0.00961318 7.22793e-06 0.00967851 1.70189e-07 273.09 
-0.25 -0.35 -2.3012 0.276674 0.00971909 0.00960123 1.30531e-05 0.00967627 1.70414e-07 272.666 
-0.25 -0.33 -1.99566 0.794161 0.00972528 0.00960744 1.11744e-05 0.00968484 1.70333e-07 273.038 
-0.49 -0.25 0.0252893 1.36227 0.00971338 0.00957773 -4.17331e-05 0.00965415 1.69877e-07 272.904 
-0.47 -0.25 -0.282217 1.68904 0.00969956 0.00957594 -4.3751e-05 0.00964173 1.70014e-07 272.333 
-0.45 -0.25 -0.553635 0.893006 0.00970837 0.00956057 -2.6745e-05 0.00965012 1.69852e-07 272.83 
-0.49 -0.23 -0.0536391 1.67675 0.00968513 0.00957182 -5.54849e-05 0.00962937 1.69579e-07 272.682 
-0.47 -0.23 -0.296248 1.38874 0.00969611 0.00957649 -4.25279e-05 0.0096622 1.70077e-07 272.81 
-0.45 -0.23 -0.719393 1.31585 0.00968765 0.00953156 -2.97549e-05 0.00962877 1.69715e-07 272.447 
-0.49 -0.21 -0.145278 1.6216 0.00972277 0.00959578 -3.69784e-05 0.00967633 1.70364e-07 272.749 
-0.43 -0.23 -0.685976 1.46136 0.00970467 0.00955249 -3.69517e-05 0.00963458 1.69545e-07 272.884 
-0.47 -0.21 -0.268976 1.89481 0.00970567 0.00956292 -3.36942e-05 0.00964571 1.70298e-07 271.992 
-0.41 -0.23 -0.724819 2.34373 0.00972254 0.00950813 -2.95932e-05 0.00962598 1.69621e-07 272.518 
-0.45 -0.21 -0.540667 1.39382 0.00971022 0.0095314 -3.67938e-05 0.00961642 1.70012e-07 271.622 
-0.49 -0.19 -0.220639 2.07206 0.00968533 0.00955117 -6.32137e-05 0.00961131 1.69584e-07 272.162 
-0.39 -0.23 -1.04719 1.95169 0.00974483 0.00956932 -1.80702e-05 0.0096631 1.70077e-07 272.835 
-0.43 -0.21 -0.880217 1.66139 0.00972674 0.00955144 -2.91804e-05 0.0096517 1.69935e-07 272.742 
-0.47 -0.19 -0.0478471 1.61505 0.0097154 0.00957276 -3.92987e-05 0.00966212 1.7085e-07 271.573 
-0.41 -0.21 -0.717791 2.18153 0.00972188 0.00952193 -3.7769e-05 0.00963239 1.69808e-07 272.399 
-0.45 -0.19 -0.0840671 2.05221 0.00972726 0.00954774 -5.04307e-05 0.009641 1.69776e-07 272.694 
-0.49 -0.17 -0.169111 2.06947 0.00970848 0.00954875 -7.12821e-05 0.00963179 1.70155e-07 271.827 
-0.39 -0.21 -0.600872 2.1286 0.00971785 0.0095383 -3.76674e-05 0.00962841 1.70047e-07 271.904 
-0.43 -0.19 -1.03186 1.69427 0.00972421 0.00953399 -4.97851e-05 0.00963169 1.6964e-07 272.649 
-0.47 -0.17 -0.477786 1.69886 0.00971644 0.00955642 -5.03008e-05 0.00966092 1.70446e-07 272.183 
-0.41 -0.19 -1.17821 2.28744 0.00973625 0.00953076 -2.55192e-05 0.00965191 1.69767e-07 273.018 
-0.45 -0.17 -0.402146 2.49135 0.00971817 0.00953872 -4.9328e-05 0.00964232 1.69877e-07 272.57 
-0.49 -0.15 0.16011 2.52072 0.00968723 0.00951152 -7.0766e-05 0.00961985 1.69992e-07 271.75 
-0.39 -0.19 -1.20358 2.2641 0.00973886 0.00952053 -2.88656e-05 0.00963734 1.69779e-07 272.586 
-0.43 -0.17 -0.399229 2.29439 0.00973367 0.00953167 -3.91058e-05 0.00964743 1.69954e-07 272.591 
-0.47 -0.15 -0.0960051 1.7149 0.00967903 0.00954363 -5.48471e-05 0.00963664 1.69743e-07 272.624 
-0.41 -0.17 -1.01625 2.00935 0.00972913 0.00951872 -3.93286e-05 0.00964388 1.69868e-07 272.628 
-0.45 -0.15 -0.217387 2.20427 0.00969006 0.00954837 -4.79718e-05 0.00962004 1.69456e-07 272.615 
-0.39 -0.17 -1.20726 2.91667 0.00971136 0.00951129 -3.18216e-05 0.00963275 1.69699e-07 272.584 
-0.43 -0.15 -0.40541 2.85712 0.00968554 0.00950222 -5.49008e-05 0.0096001 1.6938e-07 272.173 
-0.41 -0.15 -0.692972 2.47031 0.00970248 0.00951162 -2.56602e-05 0.00963402 1.69725e-07 272.58 
-0.39 -0.15 -1.39449 3.18387 0.00972227 0.0095221 -3.69524e-05 0.00962529 1.69833e-07 272.159 
-0.49 -0.27 -0.0806184 1.35925 0.00971222 0.00955668 -4.06009e-05 0.00964014 1.69779e-07 272.666 
-0.43 -0.25 -0.222041 1.45237 0.00972787 0.00955466 -7.31437e-07 0.00964076 1.69752e-07 272.727 
-0.41 -0.25 -0.0302153 2.16483 0.00972838 0.00952043 -1.21961e-05 0.0096263 1.69913e-07 272.06 
-0.39 -0.25 -0.762965 1.27044 0.00971825 0.00954016 -1.85765e-05 0.00963311 1.69453e-07 272.991 
-0.33 -0.25 -0.942992 1.89586 0.00972165 0.00954905 -6.52371e-06 0.00965868 1.70006e-07 272.824 
-0.37 -0.25 -0.718241 2.48122 0.009732 0.00954387 -1.83134e-05 0.00964357 1.69875e-07 272.608 
-0.35 -0.25 -0.800598 1.68344 0.00972057 0.00953479 4.5376e-06 0.00965148 1.69936e-07 272.733 
-0.37 -0.23 -0.879061 1.89195 0.00972141 0.00950121 -1.30868e-05 0.00961866 1.6953e-07 272.457 
-0.35 -0.23 -0.443124 1.91417 0.009752 0.00954067 -5.46713e-06 0.00964782 1.70216e-07 272.182 
-0.37 -0.21 -0.880597 1.66329 0.00974778 0.00950942 -2.60481e-05 0.00964103 1.6957e-07 273.027 
-0.35 -0.21 -1.36447 2.34516 0.00975333 0.00953989 -2.5011e-05 0.00966349 1.69935e-07 273.075 
-0.37 -0.19 -1.77571 2.31905 0.00972606 0.00950778 -2.30215e-05 0.00962024 1.6952e-07 272.519 
-0.35 -0.19 -1.5031 2.03123 0.00971726 0.0095434 -3.32717e-05 0.00962791 1.70145e-07 271.733 
-0.37 -0.17 -1.65647 2.20343 0.00972992 0.00952528 -1.47079e-05 0.00964221 1.69887e-07 272.55 
-0.35 -0.17 -1.41624 1.84793 0.0097266 0.00954301 -2.67104e-05 0.00962835 1.69653e-07 272.535 
-0.33 -0.17 -1.64818 2.06433 0.00971982 0.00954957 -3.0329e-05 0.00963701 1.70011e-07 272.205 
-0.37 -0.15 -1.11914 2.222 0.00971275 0.0095055 -4.39917e-05 0.00962224 1.69718e-07 272.257 
-0.35 -0.15 -1.53293 1.96905 0.00972978 0.00955456 -2.71544e-05 0.00964098 1.69825e-07 272.615 
-0.33 -0.15 -1.57829 2.01183 0.0097404 0.00954474 -2.91608e-05 0.00964929 1.70017e-07 272.542 
-0.37 -0.13 -1.06012 2.68106 0.00972101 0.00950667 -5.04316e-05 0.00961516 1.69311e-07 272.71 
-0.35 -0.13 -1.34432 2.18563 0.00974072 0.00954307 -3.82923e-05 0.00963771 1.69588e-07 272.904 
-0.33 -0.13 -1.7176 2.5687 0.00972463 0.00952817 -1.9059e-05 0.00962427 1.69366e-07 272.88 
-0.37 -0.11 -1.12855 3.32757 0.00969036 0.0094957 -6.26157e-05 0.00959963 1.68859e-07 272.998 
-0.35 -0.11 -1.4351 2.61974 0.00966643 0.00951256 -4.28607e-05 0.00960015 1.69065e-07 272.681 
-0.33 -0.11 -2.00382 2.93436 0.00967593 0.00949979 -1.12523e-05 0.00960665 1.69154e-07 272.722 
-0.35 -0.09 -1.1027 3.05535 0.00967694 0.00951089 -2.85925e-05 0.00959191 1.6937e-07 271.956 
-0.49 -0.13 0.0909599 2.19466 0.00967716 0.00951667 -7.75035e-05 0.00960887 1.69633e-07 272.015 
-0.47 -0.13 0.00437483 2.12819 0.00969386 0.00952607 -7.35552e-05 0.00961456 1.70184e-07 271.294 
-0.45 -0.13 -0.738934 2.58805 0.00971258 0.00954887 -4.84964e-05 0.00962602 1.69471e-07 272.76 
-0.49 -0.11 0.0360658 2.40023 0.0096929 0.00951548 -8.06568e-05 0.00960513 1.69747e-07 271.726 
-0.43 -0.13 -0.93522 2.68044 0.00971554 0.00951573 -5.14451e-05 0.00962774 1.69771e-07 272.328 
-0.47 -0.11 -0.671077 2.59083 0.0096833 0.00953068 -7.50266e-05 0.00959639 1.69516e-07 271.849 
-0.41 -0.13 -1.15222 2.78338 0.00969191 0.00950431 -6.49409e-05 0.00962225 1.69477e-07 272.644 
-0.45 -0.11 -0.986993 2.60147 0.00967913 0.00952704 -7.69834e-05 0.00963364 1.69691e-07 272.622 
-0.49 -0.09 -0.326238 2.68038 0.00967945 0.00950349 -6.21611e-05 0.00960058 1.69753e-07 271.587 
-0.39 -0.13 -0.633941 3.36312 0.00968651 0.00951027 -4.97903e-05 0.00960614 1.69471e-07 272.197 
-0.43 -0.11 -1.179 3.20941 0.0096723 0.00950938 -4.84272e-05 0.00959499 1.69243e-07 272.247 
-0.47 -0.09 -0.654305 3.29385 0.00968315 0.00953536 -8.13134e-05 0.00961876 1.69733e-07 272.135 
-0.41 -0.11 -1.18027 2.55765 0.00968101 0.00950462 -5.58862e-05 0.00961228 1.69356e-07 272.556 
-0.45 -0.09 -0.934838 2.93623 0.00966686 0.00951036 -6.60852e-05 0.00960042 1.69099e-07 272.633 
-0.39 -0.11 -1.16558 3.06732 0.00970875 0.00952088 -5.16698e-05 0.00960609 1.69359e-07 272.376 
-0.43 -0.09 -1.09628 3.05781 0.00968737 0.00950294 -6.43819e-05 0.00959854 1.69539e-07 271.873 
-0.41 -0.09 -1.02424 2.83177 0.00968965 0.00952602 -5.04579e-05 0.00960629 1.69286e-07 272.499 
-0.39 -0.09 -1.23905 2.93349 0.00968745 0.00950263 -6.36211e-05 0.00958567 1.69068e-07 272.265 
-0.37 -0.09 -0.887914 2.96738 0.00968521 0.0094874 -2.85306e-05 0.0095916 1.69183e-07 272.248 
-0.35 -0.03 -1.56813 3.52832 0.00966783 0.00947483 -3.29019e-05 0.00959269 1.68849e-07 272.817 
-0.37 -0.07 -1.01123 3.33991 0.00965282 0.0094798 -4.3113e-05 0.00957194 1.68696e-07 272.474 
-0.41 -0.05 -1.14462 3.46542 0.00964307 0.00949238 -5.29183e-05 0.00956949 1.68668e-07 272.45 
-0.45 -0.03 -0.463662 3.78954 0.00964209 0.00950243 -9.4365e-05 0.00958296 1.69068e-07 272.188 
-0.35 -0.07 -0.954548 3.32933 0.00969809 0.00951562 -4.02018e-05 0.00962092 1.69817e-07 272.061 
-0.39 -0.05 -1.18723 2.74854 0.00966878 0.00948735 -4.68283e-05 0.00958595 1.69029e-07 272.336 
-0.43 -0.03 -0.29655 3.79095 0.00965809 0.00947751 -6.16368e-05 0.00959249 1.69265e-07 272.142 
-0.33 -0.07 -1.21483 3.18993 0.00969943 0.0094902 -2.16203e-05 0.00960066 1.68934e-07 272.907 
-0.37 -0.05 -0.927774 2.90512 0.00965543 0.00948102 -5.68649e-05 0.00959412 1.68903e-07 272.77 
-0.41 -0.03 -0.381141 3.75582 0.00965621 0.00947606 -6.10363e-05 0.00956848 1.68568e-07 272.583 
-0.35 -0.05 -1.01564 3.34976 0.00964173 0.00949728 -4.49868e-05 0.00958425 1.68599e-07 272.982 
-0.39 -0.03 -0.645187 3.09321 0.00964345 0.00948772 -5.48655e-05 0.00956625 1.68683e-07 272.333 
-0.33 -0.05 -1.0628 3.98213 0.00964189 0.00947991 -3.95295e-05 0.00957605 1.68551e-07 272.826 
-0.37 -0.03 -1.04704 3.20337 0.00966641 0.00949278 -5.88496e-05 0.00959358 1.68944e-07 272.689 
-0.33 -0.03 -1.99069 3.83954 0.0096824 0.00950684 -4.12278e-05 0.00959972 1.6931e-07 272.273 
-0.49 -0.07 0.0194061 2.98481 0.00965894 0.0095143 -7.66753e-05 0.00959036 1.69307e-07 272.013 
-0.47 -0.07 0.254851 3.05743 0.00967254 0.00952827 -8.33626e-05 0.00959142 1.69757e-07 271.322 
-0.45 -0.07 -0.282901 3.52635 0.00967557 0.00950434 -6.35134e-05 0.00959056 1.69428e-07 271.825 
-0.49 -0.05 -0.251749 3.09542 0.0096473 0.0094953 -0.000100152 0.0095689 1.68966e-07 271.953 
-0.43 -0.07 -0.364997 3.18433 0.009675 0.00949607 -5.32168e-05 0.00959394 1.69601e-07 271.643 
-0.47 -0.05 -0.346382 3.21933 0.00963928 0.00951551 -7.47638e-05 0.00956593 1.68953e-07 271.888 
-0.41 -0.07 -0.736676 3.08773 0.00968273 0.00953011 -5.85067e-05 0.00962823 1.69823e-07 272.257 
-0.45 -0.05 -0.24995 3.44498 0.00963978 0.00949801 -6.74165e-05 0.00957782 1.6873e-07 272.587 
-0.49 -0.03 0.0422479 3.21956 0.00960388 0.00947437 -0.0001054 0.00956379 1.68793e-07 272.086 
-0.39 -0.07 -1.03001 2.81301 0.00964508 0.00947105 -4.20413e-05 0.00958562 1.69211e-07 272.033 
-0.43 -0.05 -0.623247 3.83328 0.00964289 0.00950104 -7.14922e-05 0.00958876 1.69223e-07 272.103 
-0.47 -0.03 -0.349495 3.37071 0.0096184 0.00950327 -8.45548e-05 0.00957543 1.69077e-07 271.96 
-0.27 -0.07 -1.60981 2.52815 0.00969337 0.00958227 -2.73891e-05 0.0096403 1.69588e-07 272.977 
-0.31 -0.05 -1.53922 3.67467 0.0096896 0.00954625 -3.6769e-05 0.00963008 1.69407e-07 272.979 
-0.27 -0.09 -1.72591 2.23981 0.00971371 0.00958229 -2.80245e-05 0.00965118 1.70018e-07 272.594 
-0.31 -0.07 -1.09906 3.13206 0.00967297 0.00953418 -3.33351e-05 0.00960811 1.68909e-07 273.16 
-0.29 -0.07 -1.95509 2.52986 0.00968306 0.00954055 -3.83111e-05 0.00961735 1.69668e-07 272.199 
-0.25 -0.07 -1.5958 2.61197 0.00968825 0.00955962 -4.45578e-06 0.00963086 1.69749e-07 272.451 
-0.29 -0.05 -1.73616 2.71476 0.00969006 0.00952884 -4.00531e-05 0.00961643 1.69338e-07 272.704 
-0.27 -0.05 -1.89945 2.38899 0.00967623 0.0095512 -1.64742e-05 0.00963349 1.69644e-07 272.695 
-0.31 -0.03 -1.67769 3.69818 0.00966595 0.0095226 -4.56919e-05 0.00960988 1.69469e-07 272.307 
-0.25 -0.05 -2.21142 2.70481 0.00970298 0.0095593 -2.36139e-05 0.00963352 1.69589e-07 272.783 
-0.29 -0.03 -1.21195 3.04569 0.00966498 0.00953006 -4.15379e-05 0.00961928 1.69626e-07 272.32 
-0.27 -0.03 -1.66815 2.80732 0.00967502 0.0095567 -3.45181e-05 0.00962144 1.69893e-07 271.953 
-0.25 -0.03 -2.07265 3.28782 0.00967396 0.00955275 -4.36236e-05 0.00961796 1.69626e-07 272.284 
-0.31 -0.25 -1.44597 1.60168 0.00973552 0.00955302 -1.94679e-05 0.00965432 1.70189e-07 272.409 
-0.29 -0.25 -1.69216 1.20351 0.00975474 0.00957794 -4.23932e-05 0.00966621 1.70208e-07 272.714 
-0.27 -0.25 -1.50795 2.01707 0.00974973 0.00958294 -1.6769e-05 0.00967325 1.70231e-07 272.875 
-0.29 -0.11 -1.91757 2.17875 0.00968862 0.00954496 -1.40056e-05 0.00960711 1.6928e-07 272.533 
-0.33 -0.09 -1.17551 3.29356 0.009661 0.00948414 -4.32452e-05 0.00958741 1.689e-07 272.585 
-0.27 -0.11 -2.04134 1.99392 0.00970423 0.00956634 -2.01387e-05 0.00964073 1.69927e-07 272.444 
-0.31 -0.09 -1.64272 2.96027 0.00967748 0.00953128 -2.2317e-05 0.00961889 1.69391e-07 272.687 
-0.29 -0.09 -1.49768 2.45943 0.00970334 0.00954924 -1.88666e-05 0.00962958 1.6943e-07 272.927 
-0.33 -0.23 -0.917025 1.81127 0.00976525 0.00957043 -1.49821e-05 0.00967956 1.70446e-07 272.709 
-0.31 -0.23 -0.942483 1.82234 0.00976956 0.00957913 -3.65577e-05 0.00968595 1.70679e-07 272.516 
-0.29 -0.23 -1.21326 1.70364 0.00975762 0.00956899 -2.70669e-05 0.00967128 1.70093e-07 273.041 
-0.33 -0.21 -1.27921 1.64877 0.00976119 0.00956838 -1.60196e-05 0.00966535 1.70103e-07 272.857 
-0.27 -0.23 -1.76677 1.89687 0.00974481 0.00955174 -1.56073e-05 0.00964576 1.69823e-07 272.753 
-0.31 -0.21 -1.52677 2.173 0.00976051 0.00959212 -1.23551e-05 0.00968292 1.70558e-07 272.624 
-0.29 -0.21 -1.99829 2.07719 0.00973692 0.00955338 -1.46666e-05 0.00966797 1.70269e-07 272.666 
-0.33 -0.19 -1.34858 1.62215 0.00972783 0.00955223 -2.61543e-05 0.00964565 1.69964e-07 272.524 
-0.27 -0.21 -2.41811 2.18655 0.00970672 0.00954101 -5.78761e-06 0.00964326 1.70004e-07 272.393 
-0.31 -0.19 -1.67455 2.50954 0.00972711 0.00957982 -1.93828e-05 0.00966212 1.70263e-07 272.509 
-0.25 -0.21 -2.29115 1.90786 0.00970502 0.00957332 1.15964e-06 0.00962787 1.69646e-07 272.532 
-0.29 -0.19 -1.71941 2.40435 0.00971208 0.00954286 1.29975e-05 0.00964291 1.69944e-07 272.479 
-0.27 -0.19 -1.96222 2.42598 0.00974768 0.00955345 -1.38482e-05 0.00965315 1.70161e-07 272.421 
-0.31 -0.17 -1.4031 2.47047 0.00972912 0.00955431 -1.5276e-05 0.00965869 1.70419e-07 272.164 
-0.25 -0.19 -2.03862 1.98644 0.00973667 0.00954644 -4.36201e-06 0.00966238 1.70368e-07 272.349 
-0.29 -0.17 -1.58681 2.68328 0.00975437 0.00956468 -1.1672e-05 0.00967355 1.70239e-07 272.871 
-0.27 -0.17 -1.36766 2.02265 0.0097311 0.00954852 -1.85987e-05 0.00966628 1.70317e-07 272.542 
-0.31 -0.15 -2.13665 2.70353 0.00973789 0.00953951 -1.66935e-05 0.00964381 1.70058e-07 272.321 
-0.25 -0.17 -1.53493 2.2912 0.0097311 0.00953933 -9.35536e-06 0.00964604 1.69868e-07 272.689 
-0.29 -0.15 -2.05583 2.3267 0.00971326 0.00955398 -7.73693e-06 0.00963879 1.69943e-07 272.364 
-0.27 -0.15 -1.82786 2.32265 0.00970269 0.00956024 8.86304e-06 0.00964214 1.70016e-07 272.342 
-0.31 -0.13 -1.96942 2.80601 0.00970134 0.00952357 -7.81315e-06 0.00961474 1.69156e-07 272.948 
-0.25 -0.15 -1.79852 2.1131 0.00969965 0.0095498 -1.44203e-05 0.00963366 1.69886e-07 272.309 
-0.29 -0.13 -1.92664 2.17234 0.00972153 0.00954667 -7.84872e-06 0.00961858 1.69316e-07 272.799 
-0.27 -0.13 -1.75456 2.28499 0.00972631 0.00956643 -4.47619e-06 0.00964889 1.7006e-07 272.461 
-0.31 -0.11 -1.85466 2.88106 0.00970395 0.00954154 -1.11201e-05 0.00962714 1.69763e-07 272.323 