ITEM: TIMESTEP
921000
ITEM: NUMBER OF CELLS
2500
ITEM: BOX BOUNDS ss ss pp
-0.5 0.5
-0.5 0.5
-0.5 0.5
ITEM: CELLS xc yc f_U[*] f_V[*] f_Tau[1] f_Tau[2] f_Tau[3] f_Press[*] f_Mrho[*] f_Ttra[*] 
-0.49 -0.49 -0.0196863 0.0715686 0.00967143 0.00956183 -8.18595e-06 0.00961315 1.69532e-07 272.298 
-0.47 -0.49 -0.205438 0.122321 0.00965509 0.00955333 -9.96572e-06 0.0096075 1.69269e-07 272.56 
-0.45 -0.49 -0.41162 0.158989 0.00966065 0.00956679 -1.98634e-08 0.00962034 1.69325e-07 272.834 
-0.49 -0.47 -0.177629 0.25755 0.00966326 0.00956 1.07599e-06 0.00961266 1.69358e-07 272.564 
-0.43 -0.49 -0.647049 0.0828561 0.00966184 0.00957506 -1.12535e-06 0.00961814 1.69391e-07 272.665 
-0.47 -0.47 -0.252669 0.35114 0.0096705 0.00955923 -2.6292e-06 0.00962544 1.69518e-07 272.668 
-0.41 -0.49 -0.768633 0.0788868 0.00967026 0.00954939 -5.45999e-06 0.00961198 1.69214e-07 272.776 
-0.45 -0.47 -0.397254 0.273803 0.00967181 0.0095629 -1.52568e-05 0.00962498 1.69413e-07 272.824 
-0.49 -0.45 -0.0180689 0.466664 0.00967114 0.00955436 -2.34101e-05 0.00961742 1.69395e-07 272.639 
-0.39 -0.49 -0.810871 -0.0429855 0.00967987 0.00958216 1.70226e-05 0.00963182 1.69488e-07 272.897 
-0.43 -0.47 -0.298582 0.0614234 0.00968542 0.0095781 -7.39657e-06 0.009633 1.69473e-07 272.955 
-0.47 -0.45 -0.286819 0.428999 0.00968952 0.009559 -8.18038e-06 0.00963169 1.69461e-07 272.937 
-0.37 -0.49 -0.642319 -0.005428 0.0096753 0.00957501 1.34833e-05 0.00962727 1.69457e-07 272.818 
-0.41 -0.47 -0.419129 0.221788 0.00967678 0.00953828 2.05749e-06 0.00961677 1.69275e-07 272.814 
-0.45 -0.45 -0.324271 0.233877 0.00968915 0.00957101 -1.48353e-05 0.0096382 1.69583e-07 272.926 
-0.49 -0.43 -0.046425 0.543375 0.00970013 0.00956011 -1.29514e-05 0.00962737 1.69529e-07 272.705 
-0.35 -0.49 -0.734115 0.0932922 0.00968192 0.00957765 1.70343e-05 0.00962155 1.69413e-07 272.728 
-0.39 -0.47 -0.453136 0.0350161 0.00968232 0.0095786 6.5555e-07 0.00962507 1.6949e-07 272.704 
-0.43 -0.45 -0.528776 0.18451 0.00968329 0.00955482 -5.21808e-06 0.00962289 1.69498e-07 272.629 
-0.47 -0.43 -0.0600046 0.522504 0.0096889 0.00955639 -2.29817e-05 0.00962882 1.6963e-07 272.584 
-0.37 -0.47 -0.632259 0.0347965 0.00969361 0.00956629 1.047e-05 0.00962908 1.69572e-07 272.684 
-0.41 -0.45 -0.539601 0.190302 0.00969794 0.00955029 -2.56135e-06 0.0096267 1.69524e-07 272.695 
-0.45 -0.43 -0.154986 0.441255 0.00969769 0.00956568 -5.09491e-06 0.00964192 1.69864e-07 272.579 
-0.49 -0.41 -0.117931 0.607741 0.00969448 0.00957122 -7.22572e-06 0.00963922 1.69824e-07 272.566 
-0.35 -0.47 -0.871054 0.158504 0.00970134 0.00957843 1.59382e-05 0.00964526 1.69815e-07 272.752 
-0.39 -0.45 -0.531305 0.14142 0.00969787 0.00956485 -3.01529e-06 0.00963035 1.69723e-07 272.478 
-0.43 -0.43 -0.297439 0.361257 0.00969222 0.00954962 -7.30436e-06 0.00962641 1.69634e-07 272.51 
-0.47 -0.41 -0.273627 0.626268 0.00970042 0.00955715 -2.07369e-05 0.0096381 1.69669e-07 272.784 
-0.37 -0.45 -0.721675 0.30748 0.00969607 0.00956911 1.04608e-05 0.00963006 1.6966e-07 272.571 
-0.41 -0.43 -0.549879 0.292439 0.00969029 0.00955695 -1.00648e-05 0.00963151 1.69502e-07 272.866 
-0.45 -0.41 -0.34634 0.490658 0.00969482 0.00955042 -5.98365e-06 0.00962771 1.69743e-07 272.371 
-0.49 -0.39 -0.118721 0.841682 0.0097035 0.00957408 -1.58443e-05 0.00964518 1.69885e-07 272.637 
-0.35 -0.45 -0.752228 0.209063 0.00968807 0.00956461 7.85751e-06 0.00963583 1.69769e-07 272.559 
-0.39 -0.43 -0.916727 0.24166 0.00968855 0.0095427 1.00888e-06 0.00961854 1.69606e-07 272.331 
-0.43 -0.41 -0.400533 0.497312 0.00970166 0.00956282 -1.00012e-07 0.00963761 1.69685e-07 272.745 
-0.47 -0.39 -0.226864 0.61367 0.0096934 0.00954617 -1.10084e-05 0.00963005 1.69756e-07 272.416 
-0.37 -0.43 -1.04603 0.435818 0.00970263 0.00956659 2.67704e-06 0.00963625 1.69697e-07 272.687 
-0.41 -0.41 -0.443005 0.568625 0.00970013 0.00955237 -1.04997e-05 0.0096276 1.69727e-07 272.394 
-0.45 -0.39 -0.325224 0.740506 0.00969316 0.00955279 -1.41567e-05 0.00962761 1.69488e-07 272.779 
-0.35 -0.43 -1.11528 0.276881 0.00972085 0.00957659 1.72062e-06 0.00965192 1.69771e-07 273.011 
-0.39 -0.41 -0.533241 0.350236 0.00970153 0.00953822 -1.48586e-05 0.00963038 1.6971e-07 272.5 
-0.43 -0.39 -0.409106 0.621574 0.0097161 0.00955338 -1.63135e-05 0.00963921 1.69635e-07 272.87 
-0.37 -0.41 -0.617963 0.476195 0.00971312 0.00956551 -9.6259e-06 0.00964962 1.69929e-07 272.692 
-0.41 -0.39 -0.506977 0.492274 0.00972586 0.00955568 -1.141e-05 0.00964428 1.69816e-07 272.723 
-0.35 -0.41 -0.817363 0.560734 0.00971265 0.00956268 2.44869e-06 0.00964377 1.69866e-07 272.628 
-0.39 -0.39 -0.607191 0.587675 0.00972056 0.00954547 -4.39336e-06 0.00964363 1.69743e-07 272.822 
-0.37 -0.39 -0.987808 0.661961 0.00970403 0.00955709 -8.18873e-06 0.00964471 1.70056e-07 272.35 
-0.41 -0.37 -0.620856 0.619581 0.00969857 0.00955316 -9.23452e-06 0.00963638 1.69704e-07 272.679 
-0.35 -0.39 -1.10031 0.770368 0.00969546 0.00955113 -2.25169e-06 0.0096342 1.69693e-07 272.635 
-0.33 -0.39 -1.23117 0.680605 0.00971608 0.00956909 -1.69244e-06 0.00964235 1.69786e-07 272.716 
-0.33 -0.49 -0.863414 0.0541596 0.0096833 0.0095731 2.18001e-05 0.00963646 1.69529e-07 272.963 
-0.33 -0.47 -0.876362 0.13076 0.00969896 0.00958139 8.40381e-06 0.0096533 1.69784e-07 273.029 
-0.33 -0.43 -1.259 0.403969 0.00971069 0.00956928 1.2603e-05 0.00964297 1.69819e-07 272.68 
-0.49 -0.37 -0.067797 1.07516 0.00969857 0.00957574 -1.941e-05 0.00964811 1.69847e-07 272.781 
-0.47 -0.37 -0.20367 0.753356 0.00970953 0.00954995 -9.34192e-06 0.00964033 1.69736e-07 272.739 
-0.45 -0.37 -0.430423 0.755826 0.00971269 0.00956226 -2.89776e-05 0.00963771 1.69602e-07 272.882 
-0.49 -0.35 0.057576 1.13848 0.00970996 0.00956836 -2.18166e-05 0.00964399 1.69744e-07 272.83 
-0.43 -0.37 -0.570847 0.609567 0.00970428 0.00953861 -1.88882e-05 0.00963012 1.69497e-07 272.835 
-0.47 -0.35 0.00604715 0.873282 0.00970671 0.00955468 -2.54406e-05 0.00963313 1.69608e-07 272.742 
-0.45 -0.35 -0.086747 0.924937 0.00971227 0.00956081 -1.92194e-05 0.00963947 1.69887e-07 272.473 
-0.49 -0.33 0.0152313 1.02487 0.00968629 0.00956434 -2.37523e-05 0.00962422 1.69384e-07 272.85 
-0.39 -0.37 -0.725857 0.899907 0.00970094 0.00954444 -6.35187e-06 0.00963168 1.69583e-07 272.741 
-0.43 -0.35 -0.316819 0.912964 0.00969984 0.00953586 -1.56776e-05 0.00962633 1.69516e-07 272.697 
-0.47 -0.33 -0.15349 1.1836 0.00969786 0.0095565 -2.32379e-05 0.00963966 1.69731e-07 272.729 
-0.37 -0.37 -0.873269 0.887251 0.00970566 0.00955104 -4.97285e-07 0.00963812 1.69598e-07 272.899 
-0.41 -0.35 -0.718116 0.668546 0.00970531 0.00954591 -1.31114e-05 0.00964042 1.69898e-07 272.482 
-0.45 -0.33 -0.286091 1.09684 0.00969307 0.00954959 -1.50273e-05 0.00962846 1.69771e-07 272.348 
-0.49 -0.31 -0.0572749 1.0826 0.0097054 0.00957239 -2.23752e-05 0.00964873 1.69913e-07 272.693 
-0.39 -0.35 -0.928456 0.956024 0.00971466 0.00954066 -1.02993e-05 0.00964096 1.69834e-07 272.601 
-0.43 -0.33 -0.403851 1.01204 0.00970072 0.00954551 -1.8856e-05 0.00963309 1.69751e-07 272.511 
-0.47 -0.31 -0.284146 1.40061 0.00970405 0.00955287 -2.44994e-05 0.00964332 1.69864e-07 272.618 
-0.37 -0.35 -0.723395 0.903977 0.00972338 0.00955176 -7.56195e-06 0.0096442 1.69663e-07 272.967 
-0.41 -0.33 -0.583214 1.138 0.0097075 0.00953601 -1.91926e-05 0.00963189 1.69751e-07 272.476 
-0.45 -0.31 -0.428909 1.23892 0.00971169 0.0095506 -2.24886e-05 0.00963643 1.6971e-07 272.671 
-0.49 -0.29 -0.154027 1.39255 0.00969953 0.00956933 -3.83613e-05 0.00964098 1.69794e-07 272.664 
-0.35 -0.35 -0.921795 1.12678 0.0097263 0.0095593 -6.55695e-06 0.00964585 1.69938e-07 272.572 
-0.39 -0.33 -0.915884 0.937837 0.00971406 0.00954742 -1.79895e-05 0.00964016 1.69898e-07 272.475 
-0.43 -0.31 -0.156005 1.0116 0.00971739 0.00955234 -2.55916e-05 0.00964289 1.69863e-07 272.607 
-0.47 -0.29 -0.145362 1.49023 0.00971008 0.00955066 -3.33589e-05 0.00964239 1.69735e-07 272.799 
-0.37 -0.33 -0.922134 0.969496 0.009714 0.00954311 -1.97971e-05 0.00964181 1.69669e-07 272.889 
-0.41 -0.31 -0.455988 1.53088 0.00971943 0.00953428 -1.90907e-05 0.0096373 1.70036e-07 272.172 
-0.45 -0.29 -0.137451 1.07034 0.00971447 0.00954184 -2.56976e-05 0.00964294 1.69647e-07 272.957 
-0.35 -0.33 -1.02405 1.3216 0.00972332 0.00956374 -7.76359e-06 0.00965045 1.69797e-07 272.928 
-0.39 -0.31 -0.634878 1.21604 0.00971984 0.00953964 -2.3342e-05 0.0096408 1.69716e-07 272.786 
-0.43 -0.29 -0.432183 1.18565 0.0097201 0.0095573 -2.27463e-05 0.00964649 1.70065e-07 272.386 
-0.47 -0.27 -0.191493 1.23575 0.00970302 0.00955328 -3.29371e-05 0.00963566 1.6958e-07 272.858 
-0.33 -0.33 -1.14668 1.21097 0.00971595 0.00954797 -3.91796e-07 0.00964406 1.69893e-07 272.594 
-0.37 -0.31 -1.183 1.0558 0.0097154 0.00954512 -1.68879e-05 0.00964448 1.69851e-07 272.672 
-0.41 -0.29 -0.492318 1.65449 0.00971689 0.00953522 -3.07667e-05 0.00964275 1.69883e-07 272.572 
-0.45 -0.27 -0.100784 1.46551 0.00970516 0.00954067 -3.18704e-05 0.00963422 1.69856e-07 272.374 
-0.35 -0.31 -1.32763 1.48134 0.00971351 0.00954324 -7.96757e-06 0.0096433 1.69905e-07 272.553 
-0.39 -0.29 -0.671909 1.62579 0.00972054 0.00953285 -1.57233e-05 0.00963501 1.69847e-07 272.411 
-0.43 -0.27 -0.514052 1.52321 0.00970313 0.00955421 -2.51265e-05 0.00963661 1.69819e-07 272.501 
-0.37 -0.29 -0.976147 1.38454 0.00972062 0.00953732 -1.39801e-05 0.00963619 1.69747e-07 272.605 
-0.41 -0.27 -0.612802 1.66059 0.00970321 0.0095341 -2.80703e-05 0.00962783 1.6974e-07 272.379 
-0.35 -0.29 -0.842616 1.40052 0.0097104 0.00953126 -7.30943e-06 0.0096293 1.69559e-07 272.712 
-0.39 -0.27 -0.716516 1.81758 0.0097003 0.00952335 -1.70042e-05 0.00961839 1.6951e-07 272.482 
-0.33 -0.29 -1.05156 1.25709 0.00972268 0.00953941 -3.55583e-06 0.00964008 1.6985e-07 272.55 
-0.37 -0.27 -0.844713 1.48023 0.00970662 0.00952914 -9.99257e-06 0.00962109 1.69514e-07 272.552 
-0.35 -0.27 -1.16935 1.57986 0.00971581 0.009538 -8.62284e-06 0.00963153 1.69756e-07 272.459 
-0.33 -0.27 -1.39275 1.50875 0.00970901 0.00953196 -6.18808e-06 0.00962438 1.6969e-07 272.363 
-0.35 -0.37 -1.11809 0.768933 0.00971349 0.00955519 -9.23309e-06 0.00964151 1.69817e-07 272.643 
-0.33 -0.37 -1.27928 0.972072 0.00971534 0.00956623 -6.24315e-06 0.00964002 1.69774e-07 272.671 
-0.33 -0.35 -1.22086 1.03043 0.00972273 0.00955627 -1.08835e-05 0.00964276 1.69905e-07 272.537 
-0.33 -0.31 -1.12531 1.23495 0.00971248 0.00954058 5.02783e-06 0.00964227 1.69933e-07 272.478 
-0.31 -0.49 -0.874595 -0.141078 0.00969494 0.00959818 1.04282e-05 0.00965505 1.69889e-07 272.91 
-0.29 -0.49 -0.884709 0.13087 0.00969898 0.00960787 2.84033e-05 0.00966022 1.7011e-07 272.702 
-0.27 -0.49 -0.997134 -0.00406194 0.00968777 0.0096106 2.80628e-05 0.00965774 1.69939e-07 272.906 
-0.31 -0.47 -0.938996 0.0239107 0.0097019 0.00957942 1.39817e-05 0.00964845 1.69796e-07 272.873 
-0.29 -0.47 -1.10918 0.103862 0.00970498 0.00960546 2.86441e-05 0.00966024 1.70025e-07 272.838 
-0.27 -0.47 -1.15193 0.0938656 0.00970813 0.00960865 2.95721e-05 0.00965366 1.69952e-07 272.769 
-0.31 -0.45 -1.2882 0.0660316 0.00969897 0.0095699 1.8026e-05 0.00963564 1.69823e-07 272.467 
-0.29 -0.45 -1.34275 0.160264 0.00970692 0.00959319 1.51057e-05 0.00965287 1.69917e-07 272.803 
-0.27 -0.45 -1.15142 0.193031 0.00972875 0.00961392 1.87094e-05 0.00966659 1.70088e-07 272.916 
-0.31 -0.43 -1.16859 0.309836 0.00971377 0.00957476 1.01849e-05 0.00965184 1.7007e-07 272.529 
-0.29 -0.43 -1.15212 0.0061911 0.00971712 0.00959687 9.14996e-06 0.00965764 1.7003e-07 272.756 
-0.27 -0.43 -1.41343 0.202663 0.00971467 0.00960142 1.07957e-05 0.00966163 1.70003e-07 272.913 
-0.31 -0.41 -1.19152 0.42666 0.0097179 0.00957863 6.25487e-06 0.00965635 1.6995e-07 272.849 
-0.25 -0.43 -1.52262 0.328817 0.00972805 0.00961566 2.90961e-05 0.00967312 1.70352e-07 272.678 
-0.29 -0.41 -1.52621 0.196041 0.00972 0.00960082 6.01344e-06 0.00966727 1.70099e-07 272.919 
-0.27 -0.41 -1.62207 0.244003 0.00971441 0.00958716 1.21525e-05 0.00965649 1.70029e-07 272.727 
-0.31 -0.39 -1.34327 0.524017 0.00972804 0.00957695 5.08791e-06 0.00965123 1.6989e-07 272.8 
-0.25 -0.41 -1.70526 0.566378 0.00971347 0.00960909 1.82393e-05 0.00966803 1.70143e-07 272.87 
-0.29 -0.39 -1.43269 0.490335 0.00972793 0.00959742 1.02241e-05 0.00966087 1.70132e-07 272.684 
-0.27 -0.39 -1.67321 0.279544 0.00972765 0.00957996 1.04735e-05 0.00966072 1.70148e-07 272.655 
-0.31 -0.37 -1.39654 0.528898 0.00971362 0.00956512 -3.17168e-06 0.00964393 1.69915e-07 272.555 
-0.25 -0.39 -1.61047 0.678223 0.00972904 0.00961383 1.46534e-05 0.0096804 1.70311e-07 272.948 
-0.29 -0.37 -1.4737 0.844227 0.00971416 0.00959123 8.60657e-06 0.00964981 1.698e-07 272.905 
-0.27 -0.37 -1.8081 0.538603 0.0097257 0.00958442 1.46854e-05 0.00965667 1.70019e-07 272.746 
-0.31 -0.35 -1.34851 0.877968 0.00972239 0.0095622 5.73269e-07 0.00964763 1.70005e-07 272.514 
-0.29 -0.35 -1.65289 0.759573 0.00972431 0.00958814 4.13783e-06 0.00966495 1.70035e-07 272.955 
-0.27 -0.35 -1.48051 0.733768 0.00972083 0.0095824 4.85073e-06 0.00966288 1.70158e-07 272.7 
-0.31 -0.33 -1.28864 1.0985 0.00970516 0.009556 8.94236e-06 0.00964897 1.70037e-07 272.501 
-0.29 -0.33 -1.25167 0.904997 0.00970821 0.00958125 -1.37075e-06 0.00965208 1.70045e-07 272.576 
-0.27 -0.33 -1.73665 0.93235 0.00970947 0.00958236 9.53755e-06 0.00965311 1.69901e-07 272.836 
-0.31 -0.31 -1.04872 1.13545 0.00972315 0.00956379 -1.89988e-06 0.00965354 1.70072e-07 272.574 
-0.29 -0.31 -1.42741 1.21666 0.00972796 0.00957742 5.43634e-06 0.00965574 1.70005e-07 272.744 
-0.27 -0.31 -1.45396 1.22194 0.00972665 0.00957288 1.8865e-06 0.00965542 1.70065e-07 272.637 
-0.31 -0.29 -1.35032 1.33293 0.00972126 0.00956847 -2.30101e-06 0.0096487 1.70164e-07 272.289 
-0.25 -0.31 -1.72 1.08031 0.0097297 0.00957776 1.63664e-05 0.00965675 1.70046e-07 272.707 
-0.29 -0.29 -1.52333 1.49871 0.00971581 0.00957266 3.99151e-06 0.00964566 1.69882e-07 272.655 
-0.27 -0.29 -1.807 1.42121 0.00971539 0.00957014 2.52919e-06 0.00964277 1.69856e-07 272.616 
-0.31 -0.27 -1.66449 1.68127 0.00971937 0.00956205 -1.70768e-07 0.00963952 1.70055e-07 272.206 
-0.25 -0.29 -1.78258 1.11179 0.00972742 0.00957513 2.81494e-06 0.00965562 1.70054e-07 272.661 
-0.29 -0.27 -1.53831 1.53353 0.00972728 0.00956981 -5.99614e-07 0.00965688 1.7011e-07 272.608 
-0.27 -0.27 -1.57985 1.29743 0.00973562 0.00957921 -6.60004e-07 0.00966222 1.69967e-07 272.988 
-0.25 -0.27 -1.56557 1.31717 0.00972887 0.00957492 -1.22282e-06 0.00965309 1.69994e-07 272.687 
-0.33 -0.45 -0.911137 0.312259 0.00970453 0.00958755 7.03914e-06 0.00965067 1.69998e-07 272.611 
-0.33 -0.41 -0.986444 0.584675 0.00971643 0.00956571 1.50437e-05 0.00964551 1.6995e-07 272.543 
-0.25 -0.49 -1.09065 -0.00841266 0.00969435 0.00961338 3.81024e-05 0.00965718 1.69922e-07 272.918 
-0.23 -0.49 -1.19503 0.196682 0.00970982 0.00961275 3.19719e-05 0.00966538 1.7012e-07 272.831 
-0.25 -0.47 -1.21314 0.119111 0.00971413 0.00961662 1.96249e-05 0.009665 1.70175e-07 272.733 
-0.23 -0.47 -1.34934 0.408816 0.00971811 0.00961846 2.2641e-05 0.00966975 1.70364e-07 272.564 
-0.25 -0.45 -1.20623 0.173236 0.0097269 0.00962174 2.21705e-05 0.00967641 1.70402e-07 272.691 
-0.23 -0.45 -1.5151 0.459553 0.00972169 0.00960676 2.83789e-05 0.00966921 1.70292e-07 272.663 
-0.25 -0.37 -1.78374 0.235729 0.00972631 0.00960028 1.35173e-05 0.0096708 1.70165e-07 272.912 
-0.25 -0.35 -1.84644 0.456301 0.00972327 0.00958619 1.11449e-05 0.0096653 1.70078e-07 272.897 
-0.25 -0.33 -2.06376 0.823169 0.00971132 0.00958428 1.32053e-05 0.00965597 1.70041e-07 272.692 
-0.49 -0.25 -0.0117526 1.61183 0.00968984 0.00954821 -3.71442e-05 0.0096205 1.69588e-07 272.416 
-0.47 -0.25 -0.0901171 1.58054 0.00969379 0.00954945 -3.57546e-05 0.0096238 1.69689e-07 272.348 
-0.45 -0.25 -0.384082 1.50725 0.00970043 0.00953413 -3.74963e-05 0.0096342 1.69801e-07 272.462 
-0.49 -0.23 -0.0153813 1.78143 0.00967929 0.00954566 -4.81898e-05 0.00961867 1.69612e-07 272.326 
-0.47 -0.23 -0.223131 1.55913 0.00968932 0.00954639 -4.484e-05 0.00963257 1.69855e-07 272.329 
-0.45 -0.23 -0.487774 1.81691 0.00969113 0.00952772 -3.51703e-05 0.00962064 1.69683e-07 272.267 
-0.49 -0.21 -0.10265 1.75267 0.00969233 0.00955308 -4.8792e-05 0.00963282 1.69802e-07 272.422 
-0.43 -0.23 -0.535198 1.75839 0.00969936 0.00954017 -3.41342e-05 0.00962396 1.69491e-07 272.671 
-0.47 -0.21 -0.193081 1.87304 0.00969737 0.00953985 -4.31573e-05 0.00963629 1.69953e-07 272.278 
-0.41 -0.23 -0.764214 1.98695 0.00970792 0.00952566 -2.73295e-05 0.009622 1.69703e-07 272.274 
-0.45 -0.21 -0.381455 2.12787 0.00970068 0.00952833 -4.44518e-05 0.009611 1.69661e-07 272.03 
-0.49 -0.19 -0.125192 2.01543 0.0096939 0.00953864 -6.05226e-05 0.00962202 1.69804e-07 272.112 
-0.39 -0.23 -0.875596 1.90153 0.00970709 0.00952701 -2.92963e-05 0.00961844 1.6968e-07 272.211 
-0.43 -0.21 -0.555147 1.80644 0.00970873 0.00952919 -3.82481e-05 0.00961679 1.69571e-07 272.338 
-0.47 -0.19 -0.273084 1.91236 0.00970273 0.0095369 -5.40236e-05 0.00963109 1.69904e-07 272.208 
-0.41 -0.21 -0.711702 2.00807 0.0097047 0.00952655 -3.02329e-05 0.00961507 1.69545e-07 272.332 
-0.45 -0.19 -0.286952 2.20341 0.00970691 0.00953299 -4.65352e-05 0.00962287 1.69563e-07 272.523 
-0.49 -0.17 -0.0354533 2.20216 0.00969801 0.00953032 -6.18855e-05 0.00961524 1.69669e-07 272.138 
-0.39 -0.21 -0.697607 2.11229 0.009714 0.00952575 -3.48865e-05 0.00962023 1.69674e-07 272.27 
-0.43 -0.19 -0.513441 2.0495 0.0097027 0.00951505 -4.09445e-05 0.00961016 1.69369e-07 272.475 
-0.47 -0.17 -0.208877 2.05946 0.00969791 0.00952517 -5.70449e-05 0.00961934 1.69744e-07 272.134 
-0.41 -0.19 -0.569093 2.23315 0.00971732 0.00952526 -3.58147e-05 0.0096258 1.69729e-07 272.34 
-0.45 -0.17 -0.342364 2.26891 0.00970679 0.00952456 -5.22673e-05 0.00962797 1.69639e-07 272.546 
-0.49 -0.15 -0.0945831 2.38546 0.00968423 0.00951312 -6.66791e-05 0.00960981 1.69597e-07 272.098 
-0.39 -0.19 -1.09234 2.4499 0.00972172 0.00952014 -2.88693e-05 0.00961799 1.69697e-07 272.17 
-0.43 -0.17 -0.569879 2.31108 0.00971086 0.00951347 -4.50953e-05 0.0096203 1.69652e-07 272.308 
-0.47 -0.15 -0.287895 2.17892 0.00968846 0.00952294 -5.96449e-05 0.0096149 1.69536e-07 272.34 
-0.41 -0.17 -1.01871 2.40793 0.00971006 0.00951958 -3.77526e-05 0.0096215 1.69642e-07 272.357 
-0.45 -0.15 -0.498374 2.38625 0.0096878 0.00951311 -5.10893e-05 0.00960782 1.69427e-07 272.316 
-0.39 -0.17 -1.08315 2.68428 0.00970146 0.00950768 -2.96986e-05 0.00961495 1.69512e-07 272.381 
-0.43 -0.15 -0.443438 2.52406 0.00969923 0.0094998 -4.64327e-05 0.00960128 1.69314e-07 272.312 
-0.41 -0.15 -0.570928 2.73959 0.00969776 0.00951626 -3.32207e-05 0.0096122 1.6957e-07 272.209 
-0.39 -0.15 -0.928606 2.92515 0.00969557 0.00950484 -3.62955e-05 0.00959982 1.69409e-07 272.118 
-0.49 -0.27 -0.127428 1.66803 0.00970761 0.00955469 -4.05144e-05 0.00963607 1.6972e-07 272.644 
-0.43 -0.25 -0.48313 1.6691 0.00970419 0.00955141 -2.66416e-05 0.00963414 1.69704e-07 272.616 
-0.41 -0.25 -0.446476 1.80966 0.00970348 0.00952629 -1.92564e-05 0.00962158 1.69703e-07 272.262 
-0.39 -0.25 -0.674242 1.56334 0.00971128 0.00952109 -2.44122e-05 0.00962173 1.69537e-07 272.532 
-0.33 -0.25 -1.39552 1.87166 0.00972506 0.0095384 -8.23426e-06 0.00964034 1.69771e-07 272.684 
-0.37 -0.25 -0.716441 2.09063 0.00971838 0.00952698 -2.08858e-05 0.00962731 1.6978e-07 272.3 
-0.35 -0.25 -1.06292 1.82115 0.00971854 0.00952619 -1.03752e-05 0.00963295 1.69772e-07 272.472 
-0.37 -0.23 -1.02916 2.03024 0.00970685 0.00951828 -2.66041e-05 0.00962011 1.69482e-07 272.575 
-0.35 -0.23 -0.976396 2.03263 0.00971458 0.00951757 -1.54615e-05 0.00961952 1.69605e-07 272.362 
-0.37 -0.21 -0.908205 1.99884 0.00971643 0.00951085 -2.41757e-05 0.00961915 1.69452e-07 272.597 
-0.35 -0.21 -1.10988 2.32492 0.00972222 0.00951703 -2.81913e-05 0.00962317 1.69347e-07 272.879 
-0.37 -0.19 -1.37789 2.16434 0.00971426 0.00950962 -2.33674e-05 0.00961259 1.69438e-07 272.433 
-0.35 -0.19 -1.34624 2.31896 0.0097139 0.00951847 -2.98374e-05 0.00960933 1.69454e-07 272.315 
-0.37 -0.17 -1.21897 2.38411 0.00971042 0.00951188 -2.59174e-05 0.00961476 1.69507e-07 272.384 
-0.35 -0.17 -1.33286 2.27786 0.00970742 0.0095163 -2.50413e-05 0.00961818 1.69714e-07 272.147 
-0.33 -0.17 -1.4492 2.39686 0.00970352 0.00951478 -2.37818e-05 0.00961674 1.69678e-07 272.166 
-0.37 -0.15 -1.1054 2.45384 0.00969474 0.0095067 -2.55205e-05 0.00961466 1.6963e-07 272.183 
-0.35 -0.15 -1.20431 2.41832 0.00969508 0.0095212 -2.30058e-05 0.00961256 1.69534e-07 272.278 
-0.33 -0.15 -1.43915 2.5376 0.00969988 0.00950556 -2.46674e-05 0.00961804 1.69496e-07 272.495 
-0.37 -0.13 -1.05143 2.67523 0.00970296 0.00950296 -3.59535e-05 0.00960679 1.69297e-07 272.495 
-0.35 -0.13 -1.24354 2.48001 0.00971766 0.00951381 -3.27646e-05 0.00961762 1.69487e-07 272.497 
-0.33 -0.13 -1.30263 2.94595 0.0097081 0.00951329 -1.9963e-05 0.00961533 1.69364e-07 272.63 
-0.37 -0.11 -1.05083 2.97278 0.00969225 0.00949953 -4.31054e-05 0.00959796 1.69144e-07 272.492 
-0.35 -0.11 -1.26953 2.67534 0.00968566 0.00950124 -3.0301e-05 0.00959623 1.69158e-07 272.419 
-0.33 -0.11 -1.57746 3.24599 0.00969262 0.00950082 -2.04978e-05 0.00960471 1.69246e-07 272.519 
-0.35 -0.09 -1.05043 2.96808 0.00967672 0.00950109 -3.2409e-05 0.00958326 1.69153e-07 272.059 
-0.49 -0.13 -0.0577795 2.44152 0.00966271 0.0095238 -8.04083e-05 0.00960177 1.69248e-07 272.432 
-0.47 -0.13 -0.331502 2.5373 0.00966953 0.00950748 -6.87661e-05 0.00959512 1.69461e-07 271.901 
-0.45 -0.13 -0.447728 2.37198 0.00968334 0.00951001 -5.75656e-05 0.00959916 1.69215e-07 272.411 
-0.49 -0.11 0.0161266 2.65254 0.00966068 0.00951482 -8.0814e-05 0.00958402 1.68973e-07 272.371 
-0.43 -0.13 -0.680081 2.67558 0.00969018 0.00949424 -5.18289e-05 0.00959713 1.69463e-07 271.955 
-0.47 -0.11 -0.0802322 2.60394 0.00966395 0.0095044 -7.15175e-05 0.00957824 1.69012e-07 272.145 
-0.41 -0.13 -0.88694 2.89248 0.0096901 0.00950262 -3.99065e-05 0.00960442 1.6938e-07 272.295 
-0.45 -0.11 -0.4337 2.74419 0.00966273 0.00950303 -6.92318e-05 0.00959631 1.69207e-07 272.343 
-0.49 -0.09 0.0377761 2.5893 0.009659 0.00950587 -7.41075e-05 0.00958887 1.69131e-07 272.255 
-0.39 -0.13 -0.925803 3.19196 0.00969195 0.00950235 -3.17981e-05 0.00959692 1.69203e-07 272.367 
-0.43 -0.11 -0.782417 2.99476 0.00965521 0.0094756 -5.48085e-05 0.00956884 1.68905e-07 272.049 
-0.47 -0.09 -0.175749 2.8425 0.0096565 0.0094991 -7.58888e-05 0.0095799 1.68916e-07 272.345 
-0.41 -0.11 -0.971962 2.85378 0.00967586 0.00949694 -5.09711e-05 0.0095921 1.69209e-07 272.22 
-0.45 -0.09 -0.331417 3.08531 0.0096531 0.00949152 -6.82711e-05 0.00957933 1.68894e-07 272.366 
-0.39 -0.11 -0.874057 3.20205 0.00969176 0.00950605 -3.94023e-05 0.00959642 1.69181e-07 272.388 
-0.43 -0.09 -0.560489 3.22521 0.00966319 0.00947522 -5.96303e-05 0.00957666 1.69031e-07 272.068 
-0.41 -0.09 -0.621794 2.99838 0.00966138 0.00948826 -5.23215e-05 0.00957788 1.68876e-07 272.353 
-0.39 -0.09 -0.853723 3.19365 0.00967388 0.00950064 -5.65809e-05 0.00958739 1.68962e-07 272.485 
-0.37 -0.09 -0.860132 3.03772 0.00967425 0.00948632 -3.33238e-05 0.00958342 1.69019e-07 272.28 
-0.35 -0.03 -1.32449 3.45731 0.00965196 0.00948989 -4.3644e-05 0.00958966 1.69209e-07 272.152 
-0.37 -0.07 -1.28627 3.30004 0.0096576 0.00948161 -4.26281e-05 0.00957614 1.68904e-07 272.257 
-0.41 -0.05 -0.696499 3.67538 0.00965163 0.00948105 -5.69986e-05 0.00956517 1.68698e-07 272.278 
-0.45 -0.03 -0.414655 3.62542 0.00962647 0.00946181 -8.96485e-05 0.00955989 1.68766e-07 272.019 
-0.35 -0.07 -1.46129 3.19524 0.00967127 0.00950512 -3.57312e-05 0.00958978 1.69086e-07 272.352 
-0.39 -0.05 -1.02097 3.4255 0.00964831 0.00946596 -5.10732e-05 0.00956242 1.68737e-07 272.137 
-0.43 -0.03 -0.468185 3.75764 0.00963812 0.00946071 -7.07126e-05 0.00956291 1.68798e-07 272.053 
-0.33 -0.07 -1.63202 3.58301 0.00968251 0.00949717 -3.51429e-05 0.009592 1.6911e-07 272.378 
-0.37 -0.05 -1.21637 3.47779 0.0096556 0.00948069 -4.93698e-05 0.00958574 1.68962e-07 272.437 
-0.41 -0.03 -0.710942 3.8307 0.00964108 0.00946716 -6.67772e-05 0.0095582 1.68725e-07 272.036 
-0.35 -0.05 -1.49201 3.39277 0.00966341 0.00949753 -5.17613e-05 0.00958619 1.68919e-07 272.52 
-0.39 -0.03 -0.903391 3.76695 0.00964719 0.00946331 -5.65959e-05 0.0095658 1.68852e-07 272.048 
-0.33 -0.05 -1.45929 3.45269 0.00966022 0.00949357 -4.01275e-05 0.00958879 1.68971e-07 272.51 
-0.37 -0.03 -1.16288 3.79577 0.00965689 0.00948343 -5.75178e-05 0.00958098 1.68945e-07 272.33 
-0.33 -0.03 -1.56479 3.48867 0.00966265 0.00949506 -4.77553e-05 0.00958948 1.69138e-07 272.26 
-0.49 -0.07 -0.0770496 2.67186 0.0096301 0.00949623 -8.47488e-05 0.00957651 1.68756e-07 272.507 
-0.47 -0.07 -0.0604894 3.03433 0.00964931 0.00950095 -7.89246e-05 0.00957904 1.69075e-07 272.065 
-0.45 -0.07 -0.35277 3.28373 0.00965663 0.00947746 -6.69342e-05 0.00957315 1.68892e-07 272.193 
-0.49 -0.05 -0.118186 2.90329 0.0096313 0.00948295 -0.000100723 0.00956571 1.68658e-07 272.359 
-0.43 -0.07 -0.366729 3.28312 0.00965927 0.00947481 -5.72301e-05 0.00956992 1.69033e-07 271.874 
-0.47 -0.05 -0.11847 3.10151 0.00962881 0.00948508 -8.57936e-05 0.00956887 1.68843e-07 272.15 
-0.41 -0.07 -0.784625 3.30089 0.00966254 0.00949035 -6.82614e-05 0.00958203 1.69049e-07 272.192 
-0.45 -0.05 -0.182995 3.40338 0.00963904 0.00946747 -7.52751e-05 0.00956603 1.68692e-07 272.312 
-0.49 -0.03 0.00122525 2.96802 0.00960527 0.00946696 -0.000104384 0.00954848 1.68369e-07 272.334 
-0.39 -0.07 -1.02713 3.27781 0.00965789 0.00947562 -4.97749e-05 0.00956945 1.68923e-07 272.037 
-0.43 -0.05 -0.58256 3.54224 0.00964828 0.00947723 -6.9438e-05 0.0095745 1.68989e-07 272.074 
-0.47 -0.03 -0.270557 3.22585 0.00961413 0.00947771 -9.52619e-05 0.00955707 1.68701e-07 272.042 
-0.27 -0.07 -1.727 2.70006 0.00968431 0.00954521 -3.10693e-05 0.00962109 1.69632e-07 272.362 
-0.31 -0.05 -1.60636 3.4981 0.00967617 0.00952382 -4.33325e-05 0.00961126 1.69423e-07 272.42 
-0.27 -0.09 -2.02261 2.69444 0.00970232 0.00955517 -2.03988e-05 0.00963105 1.69958e-07 272.122 
-0.31 -0.07 -1.35396 3.22372 0.00967408 0.00952566 -3.09331e-05 0.00960736 1.69332e-07 272.456 
-0.29 -0.07 -1.77665 3.05641 0.00967536 0.00953838 -3.98239e-05 0.00961885 1.69556e-07 272.421 
-0.25 -0.07 -1.72443 2.67544 0.00969157 0.00956458 -1.69534e-05 0.00963099 1.7e-07 272.052 
-0.29 -0.05 -1.6339 3.13951 0.00968191 0.00953923 -2.85194e-05 0.00961749 1.69625e-07 272.272 
-0.27 -0.05 -1.8891 2.83713 0.00966888 0.00953136 -3.64444e-05 0.00960879 1.69514e-07 272.203 
-0.31 -0.03 -1.69637 3.59942 0.00966549 0.00951771 -4.11519e-05 0.00960604 1.69457e-07 272.216 
-0.25 -0.05 -2.17138 2.75232 0.00967612 0.00955801 -2.65431e-05 0.0096181 1.69448e-07 272.573 
-0.29 -0.03 -1.90675 3.36118 0.00966676 0.0095389 -4.32736e-05 0.00961281 1.69471e-07 272.386 
-0.27 -0.03 -1.99663 3.02834 0.00969002 0.00952887 -3.5e-05 0.00961565 1.69786e-07 271.961 
-0.25 -0.03 -2.0802 2.90601 0.0096912 0.009563 -3.82574e-05 0.00962629 1.69632e-07 272.51 
-0.31 -0.25 -1.54698 1.66644 0.00971996 0.00955137 -9.88183e-06 0.00963962 1.69788e-07 272.636 
-0.29 -0.25 -1.73263 1.41034 0.009727 0.00957252 -1.26719e-05 0.0096458 1.69845e-07 272.719 
-0.27 -0.25 -1.72215 1.59095 0.00973969 0.00956933 -1.16243e-06 0.00965845 1.69964e-07 272.886 
-0.29 -0.11 -1.86393 2.60712 0.00971924 0.00955021 -2.58398e-05 0.00963225 1.69868e-07 272.299 
-0.33 -0.09 -1.28865 3.56853 0.00967664 0.00949979 -3.70537e-05 0.00959561 1.69209e-07 272.32 
-0.27 -0.11 -1.90453 2.43851 0.00971625 0.00955548 -1.79324e-05 0.00964649 1.69905e-07 272.643 
-0.31 -0.09 -1.62615 3.14073 0.00968212 0.00952334 -3.05112e-05 0.00961724 1.69563e-07 272.364 
-0.29 -0.09 -1.77327 2.73911 0.00969545 0.00954536 -2.84915e-05 0.00963314 1.69751e-07 272.512 
-0.33 -0.23 -1.15264 2.00391 0.00972497 0.00953856 -1.18362e-05 0.00963407 1.697e-07 272.62 
-0.31 -0.23 -1.48287 1.92773 0.00973942 0.00955616 -1.57525e-05 0.00964204 1.69965e-07 272.421 
-0.29 -0.23 -1.77221 1.74023 0.00974587 0.00957302 -1.2353e-05 0.00965753 1.70003e-07 272.797 
-0.33 -0.21 -1.1936 2.019 0.0097275 0.00953353 -2.34461e-05 0.00963272 1.69713e-07 272.562 
-0.27 -0.23 -2.05085 1.58279 0.00973601 0.00955813 -9.97832e-06 0.0096553 1.70071e-07 272.625 
-0.31 -0.21 -1.15742 2.34277 0.00972578 0.00955406 -1.6876e-05 0.00964525 1.69871e-07 272.663 
-0.29 -0.21 -1.43474 1.85567 0.00971461 0.00955896 -7.80943e-06 0.00964379 1.69836e-07 272.676 
-0.33 -0.19 -1.31019 2.12852 0.00971305 0.00952192 -2.45711e-05 0.00962323 1.69468e-07 272.687 
-0.27 -0.21 -1.73034 1.97809 0.009705 0.0095603 -1.08376e-06 0.00964111 1.69777e-07 272.696 
-0.31 -0.19 -1.54593 2.27383 0.00971581 0.00954494 -1.32008e-05 0.0096422 1.69805e-07 272.681 
-0.25 -0.21 -2.07503 1.66529 0.00970988 0.00956372 8.21695e-07 0.00963672 1.69629e-07 272.81 
-0.29 -0.19 -1.66165 2.05423 0.00970789 0.00954935 -2.26767e-06 0.00963532 1.69648e-07 272.739 
-0.27 -0.19 -1.85909 2.22633 0.00971958 0.00956764 -4.03348e-06 0.00964142 1.69887e-07 272.528 
-0.31 -0.17 -1.60483 2.24511 0.00970155 0.00953367 -1.25503e-05 0.00962707 1.69787e-07 272.282 
-0.25 -0.19 -1.99697 2.06707 0.00972441 0.00955374 -1.04766e-05 0.00964932 1.69959e-07 272.635 
-0.29 -0.17 -1.63256 2.48468 0.00972558 0.00955709 -5.54993e-06 0.00964249 1.69971e-07 272.423 
-0.27 -0.17 -1.80836 2.06835 0.00972521 0.00956747 -1.69281e-05 0.00964728 1.70044e-07 272.442 
-0.31 -0.15 -1.67651 2.46381 0.00971026 0.00953804 -2.48321e-05 0.00962608 1.69628e-07 272.511 
-0.25 -0.17 -1.65926 2.18014 0.00971851 0.00955881 -1.16604e-05 0.00964172 1.69965e-07 272.412 
-0.29 -0.15 -1.79789 2.46955 0.00970127 0.0095365 -1.77873e-05 0.00962306 1.69679e-07 272.343 
-0.27 -0.15 -1.87601 2.19004 0.00970783 0.00957843 -5.59532e-06 0.00964741 1.70046e-07 272.443 
-0.31 -0.13 -1.65548 2.68043 0.00969602 0.00952301 -1.65375e-05 0.00961639 1.69397e-07 272.608 
-0.25 -0.15 -1.94823 2.1776 0.00970834 0.00955888 -1.10947e-05 0.00964351 1.69801e-07 272.725 
-0.29 -0.13 -1.92102 2.48528 0.00969785 0.00953931 -1.64902e-05 0.00962119 1.6961e-07 272.401 
-0.27 -0.13 -1.96185 2.37036 0.00970845 0.00956721 -2.06263e-05 0.00964812 1.69873e-07 272.74 
-0.31 -0.11 -1.75281 2.87286 0.00971238 0.00952729 -2.2843e-05 0.00962648 1.69628e-07 272.521 
-0.25 -0.13 -2.09011 2.35371 0.0097267 0.00957046 -1.35096e-05 0.00965 1.6986e-07 272.814 