ITEM: TIMESTEP
990000
ITEM: NUMBER OF CELLS
2500
ITEM: BOX BOUNDS ss ss pp
-0.5 0.5
-0.5 0.5
-0.5 0.5
ITEM: CELLS xc yc f_U[*] f_V[*] f_Tau[1] f_Tau[2] f_Tau[3] f_Press[*] f_Mrho[*] f_Ttra[*] 
-0.49 -0.49 -0.0689993 0.0958435 0.00967299 0.00955317 -4.8159e-06 0.00961212 1.69413e-07 272.461 
-0.47 -0.49 -0.222944 0.0613048 0.00966113 0.0095586 -9.44742e-06 0.00961375 1.69328e-07 272.644 
-0.45 -0.49 -0.400047 0.0978658 0.00966343 0.00956289 -1.67457e-06 0.00961841 1.69266e-07 272.875 
-0.49 -0.47 -0.180285 0.264901 0.00966285 0.00955457 -1.20836e-07 0.0096096 1.69307e-07 272.559 
-0.43 -0.49 -0.596445 0.124308 0.00966338 0.00957149 -8.45938e-06 0.00961733 1.69303e-07 272.785 
-0.47 -0.47 -0.296484 0.265285 0.00967197 0.0095646 -4.45236e-06 0.00962504 1.69471e-07 272.733 
-0.41 -0.49 -0.654515 0.00189226 0.00966374 0.00955075 -1.38419e-06 0.00960888 1.69112e-07 272.852 
-0.45 -0.47 -0.376597 0.152926 0.00967494 0.00956477 -1.44026e-05 0.00962421 1.69408e-07 272.811 
-0.49 -0.45 -0.00163894 0.520898 0.0096733 0.00955671 -1.60091e-05 0.0096191 1.6951e-07 272.501 
-0.39 -0.49 -0.687573 0.0171261 0.00967518 0.0095772 1.83263e-05 0.00962707 1.69395e-07 272.913 
-0.43 -0.47 -0.255291 0.0862209 0.00967923 0.00956693 -3.15817e-06 0.00962215 1.69339e-07 272.864 
-0.47 -0.45 -0.194863 0.305471 0.00968439 0.00956655 -6.78755e-06 0.00963399 1.69599e-07 272.78 
-0.37 -0.49 -0.622938 0.0156285 0.00967104 0.00957059 1.29764e-05 0.00962145 1.69328e-07 272.861 
-0.41 -0.47 -0.430678 0.119165 0.00967634 0.00954421 5.94227e-07 0.00961297 1.69196e-07 272.834 
-0.45 -0.45 -0.32621 0.21415 0.00968187 0.00956683 -9.77747e-06 0.00963218 1.69498e-07 272.893 
-0.49 -0.43 -0.0267848 0.547234 0.00969194 0.00955661 -8.47392e-06 0.0096266 1.69518e-07 272.701 
-0.35 -0.49 -0.722196 0.0296929 0.00967852 0.00957254 2.09029e-05 0.00962383 1.69492e-07 272.665 
-0.39 -0.47 -0.50831 0.113606 0.00967744 0.00956977 3.28308e-06 0.00961825 1.69354e-07 272.729 
-0.43 -0.45 -0.552254 0.134046 0.00967811 0.00955085 -4.66033e-06 0.00961671 1.69358e-07 272.679 
-0.47 -0.43 -0.118117 0.47593 0.00968879 0.00956793 -1.54532e-05 0.00963354 1.69613e-07 272.744 
-0.37 -0.47 -0.639166 0.0241992 0.00968598 0.00956493 1.55821e-05 0.00962748 1.69612e-07 272.576 
-0.41 -0.45 -0.555076 0.212584 0.00968706 0.00955287 -1.42329e-06 0.00962574 1.69492e-07 272.719 
-0.45 -0.43 -0.13695 0.328679 0.0096869 0.0095616 -3.03885e-06 0.00963113 1.69634e-07 272.644 
-0.49 -0.41 -0.0652235 0.64492 0.00968572 0.0095625 -1.2477e-05 0.00963042 1.69578e-07 272.712 
-0.35 -0.47 -0.756166 0.122066 0.0096879 0.00957202 1.53135e-05 0.00963651 1.69733e-07 272.637 
-0.39 -0.45 -0.596978 0.148149 0.00968812 0.00955746 -1.6032e-06 0.00962555 1.69614e-07 272.517 
-0.43 -0.43 -0.201125 0.367555 0.00968438 0.00954905 -6.67248e-06 0.00962039 1.69502e-07 272.552 
-0.47 -0.41 -0.205372 0.560228 0.00969 0.00955885 -1.54255e-05 0.00963466 1.6957e-07 272.846 
-0.37 -0.45 -0.769336 0.2246 0.00969001 0.00956347 1.15403e-05 0.00962713 1.69646e-07 272.51 
-0.41 -0.43 -0.53786 0.388491 0.00968449 0.00955625 -4.91844e-06 0.00962393 1.69442e-07 272.749 
-0.45 -0.41 -0.320121 0.437922 0.00969396 0.0095579 -1.98949e-06 0.00962778 1.69629e-07 272.557 
-0.49 -0.39 -0.116322 0.824242 0.0096997 0.00956799 -1.57843e-05 0.00963932 1.69709e-07 272.754 
-0.35 -0.45 -0.858097 0.229942 0.00969146 0.00956759 1.08178e-05 0.00963736 1.69719e-07 272.683 
-0.39 -0.43 -0.956549 0.285864 0.00968441 0.00954135 1.27001e-06 0.00961577 1.69575e-07 272.302 
-0.43 -0.41 -0.516776 0.481919 0.00970008 0.00955934 -1.82076e-06 0.00963533 1.69613e-07 272.796 
-0.47 -0.39 -0.214838 0.642728 0.0096925 0.00954259 -9.83297e-06 0.00962381 1.6961e-07 272.475 
-0.37 -0.43 -0.916549 0.237053 0.0096956 0.00956287 3.45562e-07 0.00963145 1.6963e-07 272.659 
-0.41 -0.41 -0.577234 0.727223 0.00969897 0.00954809 -9.10343e-06 0.00962478 1.6962e-07 272.487 
-0.45 -0.39 -0.438662 0.70332 0.00969927 0.00956341 -1.63259e-05 0.00963781 1.69609e-07 272.872 
-0.35 -0.43 -0.936772 0.262579 0.00971302 0.00957119 4.63815e-06 0.00964596 1.698e-07 272.796 
-0.39 -0.41 -0.591127 0.367452 0.00969925 0.00954393 -8.46219e-06 0.0096308 1.69635e-07 272.632 
-0.43 -0.39 -0.49618 0.662526 0.00971577 0.00954916 -1.42946e-05 0.00963837 1.69719e-07 272.711 
-0.37 -0.41 -0.698732 0.243866 0.00970456 0.00956017 -8.35561e-06 0.00964163 1.69791e-07 272.688 
-0.41 -0.39 -0.568921 0.592526 0.00972179 0.00955036 -5.78245e-06 0.00963945 1.69839e-07 272.55 
-0.35 -0.41 -0.908574 0.566528 0.00970075 0.00955444 4.41895e-06 0.00963464 1.69703e-07 272.632 
-0.39 -0.39 -0.603494 0.521262 0.00971936 0.0095491 -1.82187e-06 0.00964349 1.69778e-07 272.761 
-0.37 -0.39 -1.08969 0.584751 0.00971056 0.00955646 -3.33628e-06 0.00964428 1.69881e-07 272.619 
-0.41 -0.37 -0.525892 0.709378 0.00970362 0.00954912 -9.22241e-06 0.00963536 1.69786e-07 272.519 
-0.35 -0.39 -1.23788 0.677723 0.00969727 0.00954455 -4.1851e-07 0.00963121 1.69548e-07 272.783 
-0.33 -0.39 -1.28659 0.780294 0.00970738 0.00956447 -1.45387e-06 0.00964187 1.69848e-07 272.604 
-0.33 -0.49 -0.867228 0.0923216 0.00967996 0.00957539 2.68473e-05 0.00963278 1.69494e-07 272.915 
-0.33 -0.47 -0.802039 0.134329 0.00969636 0.00958119 1.41672e-05 0.00964511 1.69723e-07 272.896 
-0.33 -0.43 -1.20173 0.408826 0.00970453 0.00956547 1.59408e-05 0.00963625 1.69747e-07 272.607 
-0.49 -0.37 -0.0737673 0.972182 0.00969759 0.00956667 -2.158e-05 0.00964134 1.69734e-07 272.771 
-0.47 -0.37 -0.175608 0.859948 0.00970723 0.0095499 -1.50474e-05 0.00963826 1.69664e-07 272.796 
-0.45 -0.37 -0.319941 0.768889 0.00971192 0.00956771 -2.39928e-05 0.00964233 1.6963e-07 272.967 
-0.49 -0.35 0.00910811 1.06904 0.00970018 0.00955899 -2.33124e-05 0.00963657 1.69686e-07 272.714 
-0.43 -0.37 -0.474275 0.68393 0.00970689 0.00953495 -1.62869e-05 0.0096281 1.69609e-07 272.597 
-0.47 -0.35 -0.00591339 0.862544 0.00970401 0.00955511 -2.62442e-05 0.00963482 1.6958e-07 272.835 
-0.45 -0.35 -0.230247 1.06491 0.00970428 0.00956004 -1.90934e-05 0.00963996 1.69804e-07 272.619 
-0.49 -0.33 -0.000594114 1.02461 0.00969712 0.00955738 -2.64488e-05 0.00963144 1.69626e-07 272.665 
-0.39 -0.37 -0.76013 0.8872 0.0097087 0.00954704 -3.41851e-06 0.00963389 1.6961e-07 272.76 
-0.43 -0.35 -0.513514 0.839749 0.00969223 0.00953295 -1.45917e-05 0.00962004 1.6945e-07 272.624 
-0.47 -0.33 -0.168107 1.18112 0.00969866 0.00955307 -2.39741e-05 0.00963792 1.69744e-07 272.658 
-0.37 -0.37 -0.894449 0.75837 0.00970655 0.00954449 1.91731e-06 0.00963244 1.69653e-07 272.649 
-0.41 -0.35 -0.733387 0.82171 0.00970096 0.00954399 -1.11799e-05 0.00963524 1.69734e-07 272.599 
-0.45 -0.33 -0.342294 1.19475 0.00969453 0.0095464 -1.3634e-05 0.009629 1.69732e-07 272.425 
-0.49 -0.31 -0.0931818 1.08601 0.00969994 0.00956321 -2.19681e-05 0.00964308 1.69817e-07 272.686 
-0.39 -0.35 -0.843901 0.951256 0.00970778 0.00953988 -8.97524e-06 0.00963293 1.6965e-07 272.668 
-0.43 -0.33 -0.465254 1.00065 0.00970106 0.0095447 -1.54603e-05 0.0096301 1.69739e-07 272.445 
-0.47 -0.31 -0.239219 1.41077 0.0097001 0.00954532 -2.63303e-05 0.009635 1.69678e-07 272.682 
-0.37 -0.35 -0.788928 0.875322 0.00971494 0.00954363 -1.30074e-06 0.00963546 1.69636e-07 272.763 
-0.41 -0.33 -0.733315 1.20377 0.00970059 0.00952836 -1.89929e-05 0.00962292 1.69571e-07 272.512 
-0.45 -0.31 -0.36896 1.28049 0.00971149 0.00954306 -2.11232e-05 0.00963549 1.69644e-07 272.751 
-0.49 -0.29 -0.0510335 1.37412 0.0096992 0.00956064 -3.59202e-05 0.00963747 1.69819e-07 272.525 
-0.35 -0.35 -1.03053 1.04918 0.00972163 0.00956024 -5.97281e-06 0.00964396 1.69805e-07 272.731 
-0.39 -0.33 -1.06309 0.941572 0.00970979 0.00954554 -1.36496e-05 0.00963544 1.69744e-07 272.588 
-0.43 -0.31 -0.246905 1.14858 0.0097151 0.00954929 -1.9007e-05 0.00964143 1.69776e-07 272.706 
-0.47 -0.29 -0.305972 1.48207 0.0097088 0.00954928 -3.11826e-05 0.00963465 1.69607e-07 272.787 
-0.37 -0.33 -0.963745 0.977486 0.00970916 0.00953857 -1.68392e-05 0.00963465 1.69614e-07 272.776 
-0.41 -0.31 -0.527015 1.48985 0.00971656 0.00953161 -1.65246e-05 0.0096293 1.69871e-07 272.21 
-0.45 -0.29 -0.163125 1.10164 0.0097124 0.00952766 -2.58508e-05 0.00963147 1.69591e-07 272.722 
-0.35 -0.33 -1.03207 1.2396 0.00972178 0.00956052 -6.96366e-06 0.00964631 1.69762e-07 272.867 
-0.39 -0.31 -0.674425 1.20424 0.00971515 0.00953631 -2.04544e-05 0.00963636 1.69666e-07 272.74 
-0.43 -0.29 -0.421982 1.40562 0.00972169 0.00955128 -2.11606e-05 0.00964541 1.69996e-07 272.465 
-0.47 -0.27 -0.14476 1.31294 0.00969943 0.00955142 -3.4718e-05 0.00963527 1.69604e-07 272.808 
-0.33 -0.33 -1.19838 1.11062 0.00971685 0.00954904 -1.58098e-06 0.00964294 1.69769e-07 272.761 
-0.37 -0.31 -1.15485 0.98144 0.00972229 0.00954383 -1.81658e-05 0.00964719 1.69845e-07 272.759 
-0.41 -0.29 -0.432565 1.53129 0.00972257 0.00953726 -2.56209e-05 0.00964339 1.69846e-07 272.65 
-0.45 -0.27 -0.214138 1.4205 0.00970232 0.00952695 -3.35304e-05 0.00962853 1.69671e-07 272.51 
-0.35 -0.31 -1.26677 1.35202 0.00971766 0.00954082 -1.02811e-05 0.00963927 1.69752e-07 272.683 
-0.39 -0.29 -0.578289 1.57517 0.0097218 0.00953212 -1.62115e-05 0.0096321 1.69763e-07 272.464 
-0.43 -0.27 -0.547627 1.64949 0.0097027 0.00954443 -2.64994e-05 0.00963045 1.6975e-07 272.438 
-0.37 -0.29 -0.900431 1.34992 0.00971558 0.00953854 -1.45928e-05 0.00963666 1.69744e-07 272.623 
-0.41 -0.27 -0.662112 1.47315 0.00970543 0.00953265 -2.52113e-05 0.00962597 1.69677e-07 272.428 
-0.35 -0.29 -0.985477 1.34633 0.00971247 0.00953255 -1.05197e-05 0.00963199 1.69579e-07 272.755 
-0.39 -0.27 -0.661783 1.69823 0.00970993 0.00952654 -1.51454e-05 0.00962402 1.69609e-07 272.482 
-0.33 -0.29 -1.11225 1.15543 0.00972069 0.00953938 -8.0827e-06 0.00963995 1.69809e-07 272.611 
-0.37 -0.27 -0.821235 1.51785 0.00971798 0.00953543 -1.1374e-05 0.00963277 1.6967e-07 272.632 
-0.35 -0.27 -1.12364 1.58382 0.00972151 0.0095368 -1.07768e-05 0.00963484 1.69735e-07 272.585 
-0.33 -0.27 -1.37994 1.43916 0.0097116 0.00953431 -7.28147e-06 0.00962729 1.69723e-07 272.392 
-0.35 -0.37 -1.1052 0.724254 0.00971664 0.0095536 -1.93666e-06 0.00964071 1.69813e-07 272.627 
-0.33 -0.37 -1.32848 1.02951 0.00971807 0.00956316 -1.91449e-06 0.00964472 1.69934e-07 272.546 
-0.33 -0.35 -1.21949 1.04617 0.00972354 0.00955455 -4.51146e-06 0.00963984 1.69831e-07 272.572 
-0.33 -0.31 -1.20713 1.22403 0.00971947 0.00954361 1.25433e-06 0.00963949 1.69798e-07 272.617 
-0.31 -0.49 -0.849243 -0.109273 0.00968388 0.00958893 1.28894e-05 0.00964314 1.69624e-07 272.999 
-0.29 -0.49 -0.862236 0.0489622 0.00969077 0.00960467 3.15745e-05 0.00965345 1.69994e-07 272.695 
-0.27 -0.49 -1.0021 0.0607273 0.00968823 0.00960481 3.207e-05 0.00965323 1.69983e-07 272.708 
-0.31 -0.47 -0.906637 0.0360918 0.00970314 0.0095783 2.06457e-05 0.00964699 1.69822e-07 272.789 
-0.29 -0.47 -1.08286 0.148976 0.00970113 0.0095978 2.68832e-05 0.0096538 1.69937e-07 272.798 
-0.27 -0.47 -1.13896 0.146601 0.00970395 0.00960324 3.04476e-05 0.00965136 1.69957e-07 272.697 
-0.31 -0.45 -1.17173 0.148458 0.00969439 0.00956871 2.06232e-05 0.00963497 1.69848e-07 272.409 
-0.29 -0.45 -1.28478 0.275332 0.00970163 0.00958792 2.15222e-05 0.00964945 1.6989e-07 272.749 
-0.27 -0.45 -1.20402 0.205467 0.00972133 0.00961148 2.13687e-05 0.00966475 1.70003e-07 273.002 
-0.31 -0.43 -1.27468 0.335098 0.00970669 0.00957383 1.32565e-05 0.00964954 1.70027e-07 272.532 
-0.29 -0.43 -1.25367 0.207272 0.00971293 0.00959181 1.18135e-05 0.00965521 1.70003e-07 272.732 
-0.27 -0.43 -1.46199 0.304519 0.00971458 0.0096009 1.21145e-05 0.0096612 1.69993e-07 272.917 
-0.31 -0.41 -1.25569 0.444003 0.00971425 0.00957716 8.37153e-06 0.00964983 1.69892e-07 272.757 
-0.25 -0.43 -1.63561 0.284409 0.00972546 0.00959709 2.75736e-05 0.00966218 1.70232e-07 272.561 
-0.29 -0.41 -1.56383 0.352672 0.00971622 0.00959161 7.55254e-06 0.00966089 1.701e-07 272.736 
-0.27 -0.41 -1.58929 0.319441 0.00971191 0.00959191 1.63862e-05 0.00965443 1.70007e-07 272.703 
-0.31 -0.39 -1.48124 0.513439 0.00972168 0.00957687 8.18642e-06 0.00964854 1.69888e-07 272.727 
-0.25 -0.41 -1.67776 0.540452 0.00970524 0.00959522 1.99884e-05 0.00965514 1.70038e-07 272.674 
-0.29 -0.39 -1.47212 0.502341 0.00972098 0.00958712 1.24019e-05 0.0096534 1.6993e-07 272.798 
-0.27 -0.39 -1.67074 0.315218 0.00971935 0.00957708 1.46697e-05 0.0096526 1.6998e-07 272.695 
-0.31 -0.37 -1.39306 0.495021 0.00971372 0.00956247 3.89352e-07 0.00964594 1.6984e-07 272.731 
-0.25 -0.39 -1.64575 0.62338 0.00972947 0.00960974 1.39732e-05 0.00967792 1.7025e-07 272.977 
-0.29 -0.37 -1.48867 0.747875 0.00971956 0.00958507 1.05959e-05 0.00965226 1.69834e-07 272.919 
-0.27 -0.37 -1.75686 0.529849 0.00972483 0.0095819 1.29307e-05 0.0096541 1.69934e-07 272.812 
-0.31 -0.35 -1.33384 0.816931 0.00972551 0.00956172 1.25674e-06 0.00964746 1.70018e-07 272.489 
-0.29 -0.35 -1.60271 0.782896 0.00972454 0.00957983 5.08933e-06 0.0096593 1.70017e-07 272.825 
-0.27 -0.35 -1.57951 0.760518 0.00972763 0.00957916 8.66262e-06 0.00965968 1.70147e-07 272.626 
-0.31 -0.33 -1.33797 1.00617 0.00971128 0.00955339 5.00931e-06 0.00964267 1.69817e-07 272.675 
-0.29 -0.33 -1.51413 1.03276 0.00971818 0.00957704 1.78536e-06 0.00965384 1.69982e-07 272.726 
-0.27 -0.33 -1.92872 0.84796 0.00971718 0.00957928 8.84546e-06 0.00965224 1.69891e-07 272.828 
-0.31 -0.31 -1.28308 1.16317 0.00972493 0.00956133 -2.49597e-06 0.00965348 1.70033e-07 272.635 
-0.29 -0.31 -1.52517 1.32709 0.00972481 0.00956631 5.24733e-06 0.00964708 1.69862e-07 272.728 
-0.27 -0.31 -1.56434 1.15 0.0097281 0.00957937 1.98387e-06 0.0096583 1.70004e-07 272.817 
-0.31 -0.29 -1.30467 1.52989 0.00972072 0.00955869 4.30657e-07 0.00964572 1.70098e-07 272.311 
-0.25 -0.31 -1.86295 0.983544 0.00973105 0.00958399 1.27755e-05 0.00966285 1.70147e-07 272.717 
-0.29 -0.29 -1.50839 1.39604 0.00972022 0.0095668 3.7716e-06 0.00964676 1.69901e-07 272.656 
-0.27 -0.29 -1.70344 1.44831 0.00972085 0.00957528 6.5213e-07 0.00964932 1.69921e-07 272.698 
-0.31 -0.27 -1.61641 1.6341 0.00971445 0.00955176 -2.18628e-06 0.0096351 1.69957e-07 272.237 
-0.25 -0.29 -1.8734 1.12769 0.00972939 0.00958123 1.54853e-06 0.00966298 1.70186e-07 272.658 
-0.29 -0.27 -1.53012 1.55158 0.00972425 0.00956417 -5.65143e-06 0.00965253 1.70033e-07 272.608 
-0.27 -0.27 -1.69169 1.43785 0.00973304 0.00957894 5.40958e-07 0.00965727 1.70004e-07 272.789 
-0.25 -0.27 -1.72416 1.35347 0.00973002 0.00958233 -2.00332e-06 0.00966231 1.70093e-07 272.788 
-0.33 -0.45 -0.930068 0.22215 0.00969883 0.00958027 9.18222e-06 0.0096396 1.69754e-07 272.69 
-0.33 -0.41 -1.11437 0.608158 0.0097115 0.00956595 1.46796e-05 0.0096436 1.69889e-07 272.586 
-0.25 -0.49 -1.16467 0.071504 0.00968892 0.00960191 3.84511e-05 0.00965134 1.69771e-07 272.996 
-0.23 -0.49 -1.23331 0.0886613 0.00970318 0.00960594 3.54201e-05 0.00965833 1.70019e-07 272.795 
-0.25 -0.47 -1.16508 0.208465 0.00971418 0.00960374 2.65762e-05 0.00965906 1.70054e-07 272.758 
-0.23 -0.47 -1.30951 0.206752 0.00971718 0.00961458 2.64222e-05 0.0096678 1.70261e-07 272.674 
-0.25 -0.45 -1.20378 0.191643 0.00972057 0.00960462 2.21322e-05 0.00966678 1.70219e-07 272.712 
-0.23 -0.45 -1.44085 0.40276 0.00971998 0.00961012 2.78554e-05 0.00966775 1.7019e-07 272.786 
-0.25 -0.37 -1.85295 0.386217 0.00972557 0.00959757 1.34245e-05 0.00966629 1.70103e-07 272.884 
-0.25 -0.35 -1.91487 0.588621 0.00972871 0.00959191 1.07908e-05 0.00966894 1.70129e-07 272.916 
-0.25 -0.33 -2.06541 0.918725 0.00972181 0.00959217 1.08292e-05 0.00966344 1.70136e-07 272.75 
-0.49 -0.25 -0.0115533 1.66862 0.00968787 0.00954493 -4.01103e-05 0.00961968 1.69548e-07 272.457 
-0.47 -0.25 -0.109358 1.53442 0.00969648 0.00954511 -3.83133e-05 0.00962396 1.69673e-07 272.378 
-0.45 -0.25 -0.383722 1.63717 0.00970281 0.00952114 -3.62985e-05 0.00962745 1.69632e-07 272.543 
-0.49 -0.23 0.0853753 1.7331 0.00968225 0.00954924 -5.05271e-05 0.00962208 1.69561e-07 272.505 
-0.47 -0.23 -0.183009 1.63851 0.00968989 0.0095342 -4.46862e-05 0.00962374 1.69653e-07 272.403 
-0.45 -0.23 -0.38746 1.94944 0.00969112 0.0095184 -3.48818e-05 0.00961667 1.69551e-07 272.366 
-0.49 -0.21 -0.109741 1.71246 0.00968528 0.00955138 -5.12286e-05 0.00962424 1.69695e-07 272.351 
-0.43 -0.23 -0.474128 1.84572 0.00969645 0.00953229 -3.35631e-05 0.00962035 1.69395e-07 272.723 
-0.47 -0.21 -0.141285 1.95558 0.00968639 0.0095274 -4.49163e-05 0.00962043 1.69669e-07 272.285 
-0.41 -0.23 -0.608921 1.88836 0.0097005 0.00952534 -2.64409e-05 0.00961874 1.69583e-07 272.373 
-0.45 -0.21 -0.295955 2.09603 0.00969123 0.00951735 -4.36616e-05 0.00960357 1.69519e-07 272.047 
-0.49 -0.19 -0.170049 1.97509 0.00968749 0.00953437 -5.93655e-05 0.00961572 1.69631e-07 272.211 
-0.39 -0.23 -0.856274 1.88134 0.00969919 0.00952126 -2.78212e-05 0.00961445 1.69597e-07 272.231 
-0.43 -0.21 -0.466181 1.9646 0.00969864 0.00952045 -3.51292e-05 0.00960756 1.69343e-07 272.444 
-0.47 -0.19 -0.344239 2.00545 0.00969727 0.00952883 -5.56523e-05 0.00962599 1.69684e-07 272.417 
-0.41 -0.21 -0.717494 1.9805 0.00969594 0.00952242 -2.89416e-05 0.00960987 1.69403e-07 272.413 
-0.45 -0.19 -0.296065 2.11275 0.00969578 0.00951368 -4.43412e-05 0.00960962 1.69411e-07 272.392 
-0.49 -0.17 -0.0316414 2.15664 0.00968337 0.00952643 -6.12153e-05 0.00960684 1.69567e-07 272.063 
-0.39 -0.21 -0.787539 2.06154 0.00970768 0.00952359 -3.14064e-05 0.00961837 1.69588e-07 272.356 
-0.43 -0.19 -0.391187 2.13676 0.00969552 0.00950846 -3.92106e-05 0.00959913 1.69258e-07 272.342 
-0.47 -0.17 -0.0939018 2.10336 0.00968283 0.00951544 -5.43056e-05 0.00960721 1.69494e-07 272.191 
-0.41 -0.19 -0.553133 2.25276 0.00971161 0.00952523 -3.36481e-05 0.00962223 1.69689e-07 272.303 
-0.45 -0.17 -0.335784 2.23383 0.00969173 0.00951092 -5.01498e-05 0.00961007 1.69499e-07 272.263 
-0.49 -0.15 -0.0265652 2.29318 0.00967854 0.00950941 -6.75474e-05 0.00960439 1.69471e-07 272.148 
-0.39 -0.19 -1.01803 2.40461 0.00971114 0.00951376 -3.00945e-05 0.00961195 1.69509e-07 272.301 
-0.43 -0.17 -0.607163 2.35039 0.00969769 0.00950572 -4.70144e-05 0.0096056 1.69449e-07 272.217 
-0.47 -0.15 -0.232961 2.21175 0.00968638 0.00951429 -5.75382e-05 0.00960911 1.69466e-07 272.29 
-0.41 -0.17 -0.899474 2.43568 0.00970219 0.00952159 -4.11281e-05 0.00961497 1.69536e-07 272.343 
-0.45 -0.15 -0.48402 2.48003 0.00969382 0.00950527 -5.34404e-05 0.00960879 1.69469e-07 272.275 
-0.39 -0.17 -0.94345 2.70707 0.00970256 0.00950576 -3.12222e-05 0.00961576 1.69607e-07 272.252 
-0.43 -0.15 -0.470365 2.48957 0.00969878 0.00949602 -4.92696e-05 0.00960291 1.69363e-07 272.279 
-0.41 -0.15 -0.553708 2.63234 0.0096912 0.00951562 -3.80052e-05 0.00960987 1.69553e-07 272.171 
-0.39 -0.15 -0.770894 2.84794 0.00968848 0.00950516 -3.97258e-05 0.00959903 1.69417e-07 272.082 
-0.49 -0.27 -0.158972 1.65406 0.00970106 0.00955042 -3.95548e-05 0.00963071 1.69651e-07 272.604 
-0.43 -0.25 -0.532917 1.77056 0.00970369 0.00954197 -2.80558e-05 0.00962792 1.69631e-07 272.558 
-0.41 -0.25 -0.583324 1.66681 0.00970682 0.00952561 -2.18406e-05 0.0096241 1.6967e-07 272.386 
-0.39 -0.25 -0.833574 1.4954 0.00971033 0.00952087 -2.51467e-05 0.00962078 1.69468e-07 272.617 
-0.33 -0.25 -1.50367 1.87602 0.00971693 0.00953456 -5.41775e-06 0.00963117 1.69698e-07 272.542 
-0.37 -0.25 -0.950988 2.05218 0.00971307 0.00953176 -1.59521e-05 0.00962695 1.69693e-07 272.43 
-0.35 -0.25 -1.18293 1.7018 0.00970984 0.00952699 -8.47186e-06 0.00962682 1.69744e-07 272.345 
-0.37 -0.23 -1.06542 2.05424 0.00970223 0.00952127 -2.21671e-05 0.00961962 1.69444e-07 272.623 
-0.35 -0.23 -1.1207 1.97559 0.00971118 0.00952421 -9.89311e-06 0.00962521 1.69582e-07 272.559 
-0.37 -0.21 -0.912979 2.17568 0.00970974 0.0095099 -2.62238e-05 0.00961765 1.69468e-07 272.528 
-0.35 -0.21 -1.19118 2.25373 0.00971796 0.00951947 -2.58294e-05 0.00962656 1.69477e-07 272.766 
-0.37 -0.19 -1.30538 2.28456 0.00971138 0.00951497 -2.65785e-05 0.00961542 1.69473e-07 272.457 
-0.35 -0.19 -1.27878 2.3495 0.00971326 0.00951826 -3.12712e-05 0.00961277 1.69497e-07 272.343 
-0.37 -0.17 -1.06739 2.42424 0.00970758 0.00951676 -3.14923e-05 0.00961617 1.69484e-07 272.46 
-0.35 -0.17 -1.17696 2.29289 0.00970555 0.00951396 -2.76841e-05 0.00961968 1.6962e-07 272.341 
-0.33 -0.17 -1.26402 2.27333 0.00970327 0.00951692 -2.39195e-05 0.00961857 1.69617e-07 272.314 
-0.37 -0.15 -0.965302 2.48855 0.00969471 0.00951285 -3.05797e-05 0.00961348 1.69601e-07 272.197 
-0.35 -0.15 -1.10164 2.4828 0.0096967 0.00951021 -2.93162e-05 0.0096082 1.69374e-07 272.411 
-0.33 -0.15 -1.412 2.50141 0.00970588 0.00951195 -2.88075e-05 0.00961759 1.69434e-07 272.582 
-0.37 -0.13 -1.18051 2.75324 0.00969646 0.00950828 -3.59693e-05 0.00960784 1.69346e-07 272.446 
-0.35 -0.13 -1.27307 2.53587 0.00970264 0.00950864 -3.76595e-05 0.0096076 1.69401e-07 272.35 
-0.33 -0.13 -1.4064 2.91509 0.0096998 0.00950892 -2.83386e-05 0.00960906 1.69405e-07 272.386 
-0.37 -0.11 -1.04737 2.87815 0.00969458 0.0095039 -4.36222e-05 0.00960359 1.69312e-07 272.381 
-0.35 -0.11 -1.28051 2.71486 0.00969521 0.00950171 -3.17748e-05 0.0095994 1.69341e-07 272.215 
-0.33 -0.11 -1.53617 3.13041 0.00969396 0.00950041 -2.45783e-05 0.00959944 1.69253e-07 272.357 
-0.35 -0.09 -1.13863 3.05745 0.00968328 0.00949893 -3.42172e-05 0.00958693 1.69223e-07 272.051 
-0.49 -0.13 -0.167373 2.37571 0.00966858 0.00951346 -7.60897e-05 0.00959918 1.69186e-07 272.458 
-0.47 -0.13 -0.31635 2.52928 0.00967279 0.00950542 -6.857e-05 0.00959588 1.69351e-07 272.099 
-0.45 -0.13 -0.384846 2.45275 0.00967961 0.0094995 -5.7526e-05 0.00959349 1.69242e-07 272.208 
-0.49 -0.11 0.0949285 2.63422 0.00966989 0.00951036 -7.84971e-05 0.00959116 1.69167e-07 272.261 
-0.43 -0.13 -0.596397 2.69459 0.00968642 0.00949185 -5.52295e-05 0.0095936 1.69369e-07 272.005 
-0.47 -0.11 -0.0886737 2.5523 0.00967072 0.00950037 -7.00885e-05 0.00958203 1.69102e-07 272.107 
-0.41 -0.13 -0.87359 2.8344 0.00969284 0.00950431 -4.33002e-05 0.00960352 1.69386e-07 272.259 
-0.45 -0.11 -0.339213 2.7305 0.0096701 0.00949157 -6.69053e-05 0.00958914 1.69094e-07 272.321 
-0.49 -0.09 0.00546331 2.60645 0.00965837 0.00949855 -7.80791e-05 0.00958141 1.68992e-07 272.266 
-0.39 -0.13 -1.04367 3.01488 0.00969697 0.00950322 -3.52471e-05 0.00959958 1.69251e-07 272.365 
-0.43 -0.11 -0.597141 2.9527 0.00966688 0.00948122 -5.64998e-05 0.00957706 1.69021e-07 272.096 
-0.47 -0.09 -0.196166 2.77195 0.00966053 0.00949239 -7.28436e-05 0.0095787 1.68898e-07 272.341 
-0.41 -0.11 -0.717038 2.94729 0.0096764 0.00949409 -5.23808e-05 0.00958984 1.69148e-07 272.254 
-0.45 -0.09 -0.406944 3.0203 0.00966263 0.00948786 -6.66864e-05 0.00957652 1.68895e-07 272.283 
-0.39 -0.11 -0.81682 3.20364 0.00968937 0.00950376 -4.21751e-05 0.00959083 1.69114e-07 272.337 
-0.43 -0.09 -0.621885 3.12657 0.00966974 0.00947793 -6.20024e-05 0.00957743 1.69047e-07 272.065 
-0.41 -0.09 -0.683421 2.99753 0.00967291 0.00948513 -5.50337e-05 0.00957744 1.68827e-07 272.42 
-0.39 -0.09 -0.797278 3.39284 0.00967856 0.00949904 -5.30872e-05 0.00958629 1.68897e-07 272.558 
-0.37 -0.09 -0.849322 2.9663 0.00967625 0.00949285 -3.61674e-05 0.009584 1.68981e-07 272.358 
-0.35 -0.03 -1.17857 3.49852 0.00965372 0.00949253 -4.62586e-05 0.00958524 1.69183e-07 272.067 
-0.37 -0.07 -1.16185 3.3409 0.00966252 0.00949154 -4.42006e-05 0.00957948 1.68934e-07 272.306 
-0.41 -0.05 -0.768652 3.51556 0.00964549 0.00947135 -5.90648e-05 0.00956166 1.68627e-07 272.293 
-0.45 -0.03 -0.453921 3.37228 0.00962473 0.00946257 -8.79044e-05 0.00956016 1.68734e-07 272.078 
-0.35 -0.07 -1.38069 3.23588 0.00967005 0.00949574 -3.59506e-05 0.00958658 1.68976e-07 272.439 
-0.39 -0.05 -0.975739 3.42534 0.00965441 0.00947184 -5.32877e-05 0.00956643 1.68917e-07 271.962 
-0.43 -0.03 -0.49988 3.78509 0.00963355 0.00945256 -7.52664e-05 0.00955409 1.68609e-07 272.107 
-0.33 -0.07 -1.62591 3.54521 0.00968075 0.0094994 -3.47482e-05 0.00958785 1.69058e-07 272.342 
-0.37 -0.05 -1.15727 3.47683 0.00966227 0.00948904 -4.64472e-05 0.00958675 1.69032e-07 272.354 
-0.41 -0.03 -0.732843 3.75355 0.00963921 0.00946409 -7.12914e-05 0.0095569 1.6862e-07 272.168 
-0.35 -0.05 -1.41251 3.55655 0.00966513 0.0094914 -5.14999e-05 0.0095847 1.68929e-07 272.461 
-0.39 -0.03 -0.93329 3.70173 0.00964225 0.00946363 -6.31463e-05 0.00955977 1.68763e-07 272.02 
-0.33 -0.05 -1.32136 3.43443 0.00966834 0.0094934 -4.12921e-05 0.00958753 1.69078e-07 272.302 
-0.37 -0.03 -1.12448 3.72761 0.00965305 0.00948349 -5.57581e-05 0.0095782 1.68874e-07 272.365 
-0.33 -0.03 -1.37698 3.5032 0.0096656 0.00948929 -4.73684e-05 0.00958464 1.69117e-07 272.156 
-0.49 -0.07 -0.138087 2.66757 0.00963188 0.00948727 -8.62288e-05 0.00956878 1.68718e-07 272.35 
-0.47 -0.07 -0.140804 2.99557 0.00965226 0.00949309 -8.37161e-05 0.00957744 1.68991e-07 272.155 
-0.45 -0.07 -0.366489 3.26649 0.00965839 0.00947375 -7.30864e-05 0.00957243 1.68896e-07 272.166 
-0.49 -0.05 -0.0707717 2.90293 0.00962636 0.00947842 -9.81336e-05 0.00956426 1.68714e-07 272.226 
-0.43 -0.07 -0.518796 3.25124 0.00966706 0.00947973 -6.13934e-05 0.00957567 1.69063e-07 271.989 
-0.47 -0.05 -0.179618 3.00932 0.00962568 0.00947708 -8.7415e-05 0.00956188 1.68784e-07 272.046 
-0.41 -0.07 -0.823824 3.19201 0.0096641 0.0094784 -6.35887e-05 0.00957709 1.68974e-07 272.173 
-0.45 -0.05 -0.251182 3.44428 0.00963465 0.00946874 -8.22835e-05 0.00956333 1.68663e-07 272.282 
-0.49 -0.03 -0.106727 3.02168 0.00960813 0.00946913 -0.000103685 0.00955154 1.68423e-07 272.335 
-0.39 -0.07 -1.03229 3.34568 0.0096626 0.00948226 -4.77433e-05 0.00957348 1.68925e-07 272.149 
-0.43 -0.05 -0.511552 3.51006 0.00963895 0.00946939 -7.15335e-05 0.00956624 1.68811e-07 272.126 
-0.47 -0.03 -0.340169 3.28028 0.00961669 0.00947384 -9.5163e-05 0.00955408 1.68645e-07 272.049 
-0.27 -0.07 -1.73102 2.58878 0.00968686 0.00954428 -3.06635e-05 0.00962384 1.69635e-07 272.435 
-0.31 -0.05 -1.55542 3.31444 0.00968154 0.00951609 -3.94659e-05 0.00960521 1.69292e-07 272.459 
-0.27 -0.09 -1.98641 2.63055 0.00969977 0.00955126 -2.23572e-05 0.00963189 1.6988e-07 272.27 
-0.31 -0.07 -1.52002 3.06988 0.00967849 0.00951441 -3.15365e-05 0.00960104 1.69229e-07 272.441 
-0.29 -0.07 -1.8057 3.00736 0.00968221 0.00953107 -3.46018e-05 0.0096157 1.6949e-07 272.437 
-0.25 -0.07 -1.76997 2.65808 0.00969385 0.00956747 -2.23253e-05 0.00963542 1.69921e-07 272.304 
-0.29 -0.05 -1.56062 2.99704 0.00968394 0.00952569 -3.15424e-05 0.00960976 1.69452e-07 272.331 
-0.27 -0.05 -1.88035 2.80878 0.00967935 0.00953901 -3.5178e-05 0.00962092 1.69494e-07 272.579 
-0.31 -0.03 -1.57004 3.52581 0.0096668 0.00950825 -3.96449e-05 0.00959785 1.69307e-07 272.226 
-0.25 -0.05 -2.09076 2.76808 0.00967996 0.00955813 -2.46624e-05 0.00962221 1.69465e-07 272.662 
-0.29 -0.03 -1.83353 3.18732 0.00966978 0.00953004 -4.39363e-05 0.00961089 1.69384e-07 272.472 
-0.27 -0.03 -1.88409 3.02285 0.00968715 0.00953003 -3.44475e-05 0.00961483 1.69602e-07 272.234 
-0.25 -0.03 -1.93904 2.82898 0.00969286 0.00956614 -3.70386e-05 0.00962864 1.69597e-07 272.632 
-0.31 -0.25 -1.59743 1.5767 0.00971656 0.0095525 -1.01003e-05 0.0096386 1.69737e-07 272.689 
-0.29 -0.25 -1.73741 1.53767 0.00972207 0.00956583 -1.26479e-05 0.00964333 1.69814e-07 272.699 
-0.27 -0.25 -1.66113 1.64452 0.00972818 0.00956956 -5.16097e-06 0.0096554 1.69938e-07 272.842 
-0.29 -0.11 -1.78291 2.53086 0.00970958 0.0095415 -2.41523e-05 0.00962743 1.69721e-07 272.398 
-0.33 -0.09 -1.36466 3.40651 0.00967922 0.00949863 -3.54057e-05 0.00959206 1.69178e-07 272.269 
-0.27 -0.11 -1.83367 2.50647 0.0097076 0.00954962 -1.32191e-05 0.00963941 1.69877e-07 272.487 
-0.31 -0.09 -1.58162 2.97164 0.00968324 0.0095165 -2.97416e-05 0.00960675 1.69366e-07 272.384 
-0.29 -0.09 -1.80284 2.67988 0.0096903 0.00953392 -2.64265e-05 0.00962278 1.69632e-07 272.411 
-0.33 -0.23 -1.31419 1.94877 0.00971613 0.00953447 -1.26281e-05 0.00963126 1.6967e-07 272.589 
-0.31 -0.23 -1.5794 1.7667 0.00972932 0.00955501 -1.54788e-05 0.00964037 1.698e-07 272.638 
-0.29 -0.23 -1.78109 1.71081 0.00973524 0.00956723 -1.24783e-05 0.00964966 1.6983e-07 272.853 
-0.33 -0.21 -1.30113 2.0125 0.009726 0.00953521 -1.84198e-05 0.0096372 1.69788e-07 272.568 
-0.27 -0.23 -2.01931 1.62671 0.00972937 0.00956418 -1.03512e-05 0.00965344 1.70051e-07 272.604 
-0.31 -0.21 -1.37697 2.15346 0.00972408 0.00955352 -1.61734e-05 0.00964404 1.69883e-07 272.608 
-0.29 -0.21 -1.63523 1.80401 0.00971866 0.00955714 -1.15338e-05 0.00964163 1.69777e-07 272.71 
-0.33 -0.19 -1.24464 2.04761 0.00971844 0.00952744 -2.55704e-05 0.00963121 1.69652e-07 272.617 
-0.27 -0.21 -1.87609 2.00305 0.00971402 0.00956561 -5.26162e-07 0.00964544 1.69796e-07 272.788 
-0.31 -0.19 -1.34617 2.1998 0.00972017 0.00954565 -1.3857e-05 0.00964171 1.69826e-07 272.635 
-0.25 -0.21 -2.12761 1.59992 0.00971891 0.00956346 -3.9704e-06 0.00964472 1.69809e-07 272.747 
-0.29 -0.19 -1.5341 2.02126 0.0097126 0.00954837 -6.09058e-06 0.0096342 1.69679e-07 272.657 
-0.27 -0.19 -1.7406 2.13896 0.00972069 0.00956739 -8.32965e-06 0.00964612 1.69957e-07 272.549 
-0.31 -0.17 -1.53289 2.20849 0.0097037 0.00953786 -1.45785e-05 0.009627 1.69642e-07 272.513 
-0.25 -0.19 -1.88502 2.00871 0.00972738 0.00956026 -7.68039e-06 0.00965256 1.7007e-07 272.549 
-0.29 -0.17 -1.67153 2.44803 0.00972322 0.00955318 -1.11565e-05 0.00964016 1.69932e-07 272.42 
-0.27 -0.17 -1.78545 2.09634 0.00972411 0.00956467 -1.97736e-05 0.00964781 1.70025e-07 272.487 
-0.31 -0.15 -1.69883 2.51328 0.00971507 0.00953909 -2.6048e-05 0.00963036 1.69744e-07 272.445 
-0.25 -0.17 -1.78036 2.19136 0.00971685 0.00955773 -6.30974e-06 0.00964478 1.70044e-07 272.371 
-0.29 -0.15 -1.72719 2.46087 0.0097064 0.00953882 -1.69133e-05 0.00962668 1.69723e-07 272.374 
-0.27 -0.15 -1.86091 2.19137 0.00970539 0.00956696 -8.88325e-06 0.00964112 1.69997e-07 272.343 
-0.31 -0.13 -1.65002 2.67466 0.00969303 0.00952425 -1.85414e-05 0.00961405 1.6946e-07 272.439 
-0.25 -0.15 -1.93544 2.19997 0.00970619 0.00955411 -9.12031e-06 0.00963865 1.69836e-07 272.531 
-0.29 -0.13 -1.78423 2.42766 0.00969682 0.00953894 -1.79513e-05 0.00962429 1.69661e-07 272.407 
-0.27 -0.13 -1.84541 2.40815 0.00970655 0.0095591 -1.34502e-05 0.00964051 1.69834e-07 272.588 
-0.31 -0.11 -1.71333 2.75685 0.00970303 0.00951922 -2.82071e-05 0.00961661 1.69527e-07 272.404 