ITEM: TIMESTEP
894000
ITEM: NUMBER OF CELLS
2500
ITEM: BOX BOUNDS ss ss pp
-0.5 0.5
-0.5 0.5
-0.5 0.5
ITEM: CELLS xc yc f_U[*] f_V[*] f_Tau[1] f_Tau[2] f_Tau[3] f_Press[*] f_Mrho[*] f_Ttra[*] 
-0.49 -0.49 -0.0670325 0.0614504 0.0974231 0.0973393 -3.45531e-05 0.097374 1.71218e-06 273.102 
-0.47 -0.49 -0.057666 -0.116806 0.0974757 0.0975535 -2.33875e-05 0.0975694 1.71614e-06 273.018 
-0.45 -0.49 0.0306078 -0.0566601 0.097522 0.0973697 7.96441e-06 0.0975389 1.71603e-06 272.95 
-0.49 -0.47 -0.0142387 0.0634593 0.0973579 0.0974055 -9.01461e-05 0.0973614 1.71365e-06 272.832 
-0.43 -0.49 0.0228379 0.113062 0.0975258 0.0974256 2.71346e-07 0.0973822 1.7128e-06 273.026 
-0.47 -0.47 0.16499 -0.0752594 0.0974158 0.0974331 6.3487e-05 0.097439 1.71408e-06 272.981 
-0.41 -0.49 -0.063725 0.0451332 0.097505 0.0973801 6.62913e-05 0.097412 1.71488e-06 272.777 
-0.45 -0.47 -0.0367421 -0.0451829 0.0973811 0.0973904 -4.11131e-06 0.0974531 1.71484e-06 272.899 
-0.49 -0.45 0.0873058 -0.13492 0.0974064 0.0974009 -1.87105e-05 0.0973582 1.71208e-06 273.072 
-0.39 -0.49 -0.175809 -0.0500118 0.0974177 0.0972982 6.86056e-05 0.0974429 1.71457e-06 272.914 
-0.43 -0.47 -0.0806861 0.105967 0.0973325 0.0973631 4.67442e-05 0.0973439 1.71174e-06 273.087 
-0.47 -0.45 0.105006 -0.0680849 0.0972941 0.0974229 -9.94244e-05 0.0973424 1.71307e-06 272.871 
-0.37 -0.49 -0.181577 0.032782 0.0974246 0.0973452 0.0001462 0.0975222 1.71395e-06 273.234 
-0.41 -0.47 -0.265597 0.187174 0.0974778 0.0974316 6.32082e-05 0.0975192 1.71494e-06 273.069 
-0.45 -0.45 0.0454646 0.358087 0.0973107 0.0972596 0.000117148 0.09729 1.71373e-06 272.619 
-0.49 -0.43 -0.0410787 -0.136456 0.0973718 0.0973203 5.5883e-05 0.097398 1.71324e-06 272.999 
-0.35 -0.49 -0.338896 0.185786 0.0973863 0.0973623 7.26532e-05 0.0975247 1.7148e-06 273.106 
-0.39 -0.47 -0.227162 -0.00973912 0.0974882 0.0972969 0.000132161 0.0974578 1.71281e-06 273.236 
-0.43 -0.45 -0.294299 -0.0577325 0.0973804 0.0974923 -3.76641e-05 0.0974918 1.71573e-06 272.866 
-0.47 -0.43 -0.230493 -0.0242199 0.0974005 0.0974673 4.3925e-05 0.097479 1.714e-06 273.106 
-0.37 -0.47 -0.28475 0.160798 0.0974647 0.0973359 6.58321e-05 0.0973814 1.71162e-06 273.212 
-0.41 -0.45 -0.0920796 0.374443 0.0972791 0.097302 9.32791e-06 0.0973253 1.71282e-06 272.862 
-0.45 -0.43 -0.33985 0.477267 0.0973749 0.0973354 8.10419e-05 0.0974434 1.71351e-06 273.085 
-0.49 -0.41 0.0532296 -0.108425 0.097357 0.0973593 5.74241e-05 0.0973744 1.71413e-06 272.792 
-0.35 -0.47 -0.371133 0.223673 0.0975237 0.0973901 0.00011329 0.097434 1.71301e-06 273.138 
-0.39 -0.45 -0.309005 0.106902 0.0972299 0.0972656 9.08242e-05 0.0972595 1.70995e-06 273.136 
-0.43 -0.43 -0.431663 0.172461 0.0974432 0.0973509 -7.92224e-05 0.097466 1.71268e-06 273.28 
-0.47 -0.41 -0.0571068 0.269844 0.097375 0.0974071 -6.98574e-05 0.0973574 1.71349e-06 272.846 
-0.37 -0.45 -0.414602 0.244186 0.0973418 0.0974502 1.48027e-05 0.097398 1.71287e-06 273.059 
-0.41 -0.43 -0.496756 0.271916 0.0974114 0.0972341 1.62115e-05 0.0973866 1.71295e-06 273.014 
-0.45 -0.41 -0.338105 0.318885 0.0975292 0.0974831 -2.05641e-05 0.0975509 1.71526e-06 273.105 
-0.49 -0.39 -0.203238 0.104585 0.0974374 0.0974253 -5.3252e-05 0.097471 1.71296e-06 273.249 
-0.35 -0.45 -0.396354 0.170565 0.097233 0.0972118 0.000146837 0.0972566 1.71145e-06 272.888 
-0.39 -0.43 -0.164289 0.0556828 0.0974025 0.0973111 4.12892e-05 0.0973764 1.71272e-06 273.021 
-0.43 -0.41 -0.223571 0.384057 0.0974195 0.0973343 6.91835e-05 0.0974297 1.71267e-06 273.18 
-0.47 -0.39 -0.387943 0.142176 0.0974544 0.0974424 -5.99481e-05 0.0974173 1.71395e-06 272.941 
-0.33 -0.45 -0.406342 0.242612 0.0973648 0.0972797 0.000134298 0.0973154 1.71382e-06 272.677 
-0.37 -0.43 -0.502954 0.524112 0.0974853 0.0973627 9.01144e-05 0.097425 1.71461e-06 272.857 
-0.41 -0.41 -0.443384 0.140754 0.0973071 0.0971656 6.27528e-05 0.0973266 1.71366e-06 272.732 
-0.45 -0.39 -0.175779 0.491922 0.0975222 0.0972971 -9.8288e-05 0.0974035 1.71496e-06 272.741 
-0.35 -0.43 -0.453313 0.13696 0.0974912 0.0973073 0.000152001 0.09741 1.71304e-06 273.066 
-0.39 -0.41 -0.6885 0.328938 0.0974098 0.0974386 -1.29614e-05 0.0974448 1.71396e-06 273.016 
-0.43 -0.39 -0.145123 0.363824 0.0976291 0.0972907 5.49737e-05 0.0974952 1.71528e-06 272.948 
-0.37 -0.41 -0.538741 0.479224 0.09728 0.0971794 4.97362e-05 0.0972766 1.70951e-06 273.254 
-0.41 -0.39 -0.310547 0.367149 0.0976398 0.0973141 7.26724e-05 0.0974993 1.7137e-06 273.21 
-0.35 -0.41 -0.667725 0.145539 0.0973198 0.0972404 2.69704e-05 0.0973187 1.71155e-06 273.047 
-0.39 -0.39 -0.569522 0.450913 0.0975841 0.0974364 4.2993e-05 0.0975469 1.71397e-06 273.301 
-0.33 -0.41 -0.575315 0.401149 0.0974229 0.0973683 2.94457e-05 0.0973941 1.71235e-06 273.13 
-0.37 -0.39 -0.416809 0.284617 0.0974426 0.0971279 6.9311e-05 0.0973582 1.71075e-06 273.285 
-0.35 -0.39 -0.227272 0.304315 0.0974177 0.0972777 7.03289e-05 0.0974205 1.71105e-06 273.412 
-0.33 -0.39 -0.352872 0.347849 0.0974977 0.0973018 6.2567e-05 0.097422 1.71354e-06 273.018 
-0.37 -0.37 -0.609574 0.168463 0.097674 0.0971968 0.000110272 0.09738 1.71306e-06 272.978 
-0.49 -0.37 -0.0728821 0.252404 0.0975856 0.0974887 -0.00012316 0.0975726 1.71621e-06 273.016 
-0.47 -0.37 -0.0447586 0.398531 0.0975001 0.0974507 -5.73567e-05 0.0975345 1.7144e-06 273.198 
-0.45 -0.37 -0.277373 0.298154 0.0974015 0.0971099 -6.02869e-05 0.0972529 1.71288e-06 272.651 
-0.49 -0.35 -0.0994734 0.496421 0.0975737 0.09744 -8.30707e-06 0.0975612 1.71424e-06 273.297 
-0.43 -0.37 -0.334658 0.485748 0.0974936 0.0972707 -3.38401e-05 0.0974307 1.71516e-06 272.786 
-0.47 -0.35 -0.34827 0.270778 0.0975519 0.097377 1.08471e-05 0.0974466 1.71454e-06 272.928 
-0.45 -0.35 -0.0663188 0.50552 0.0976244 0.097267 -2.02142e-07 0.0974422 1.71298e-06 273.165 
-0.49 -0.33 -0.0825235 0.591139 0.0974307 0.0973038 -0.000131366 0.0974428 1.71411e-06 272.986 
-0.39 -0.37 -0.359518 0.434093 0.097608 0.0973247 4.14502e-05 0.0975282 1.71286e-06 273.426 
-0.43 -0.35 -0.295668 0.613372 0.0975324 0.0971754 -4.8074e-05 0.0974265 1.71309e-06 273.103 
-0.47 -0.33 0.142774 0.318844 0.0974628 0.0973376 -1.19966e-06 0.0974155 1.71217e-06 273.219 
-0.41 -0.35 -0.2203 0.509021 0.0975381 0.0973111 -2.71973e-05 0.097521 1.71498e-06 273.067 
-0.45 -0.33 0.010677 0.424595 0.0974743 0.0973456 -6.63983e-05 0.0974541 1.71395e-06 273.045 
-0.49 -0.31 0.128252 0.662607 0.0972707 0.0972636 -0.000126306 0.097284 1.7111e-06 273.021 
-0.39 -0.35 -0.352314 0.586297 0.0975579 0.0972644 2.56036e-06 0.0975361 1.71389e-06 273.284 
-0.43 -0.33 -0.0473308 0.717902 0.0974352 0.0971042 -8.81363e-05 0.0973494 1.71261e-06 272.964 
-0.47 -0.31 -0.222221 0.236265 0.097402 0.0972912 -5.72776e-05 0.0974051 1.71067e-06 273.43 
-0.37 -0.35 -0.405912 0.367199 0.0975754 0.0971938 8.82975e-05 0.0974267 1.71228e-06 273.234 
-0.41 -0.33 -0.299256 0.656417 0.0974617 0.0973153 -3.04415e-05 0.0974205 1.71297e-06 273.106 
-0.45 -0.31 -0.241419 0.476381 0.0974636 0.0973755 -7.28186e-06 0.0974804 1.71263e-06 273.327 
-0.49 -0.29 0.0272524 0.567195 0.0975216 0.0972378 -9.42345e-05 0.0974339 1.71416e-06 272.953 
-0.35 -0.35 -0.695832 0.426553 0.0975295 0.097371 -3.4483e-06 0.0974645 1.71491e-06 272.92 
-0.39 -0.33 -0.36139 0.752127 0.0975087 0.0971306 -2.65012e-05 0.097404 1.71113e-06 273.353 
-0.43 -0.31 -0.160911 0.770302 0.097436 0.0972526 -6.12514e-05 0.0973447 1.71244e-06 272.977 
-0.47 -0.29 -0.0780783 0.723256 0.0975039 0.0971453 -0.000169824 0.0973455 1.71099e-06 273.211 
-0.37 -0.33 -0.673344 0.718819 0.0976153 0.0972948 4.12239e-05 0.0975319 1.715e-06 273.094 
-0.41 -0.31 -0.217479 0.864318 0.0974865 0.0972663 -0.000165459 0.097377 1.71256e-06 273.05 
-0.45 -0.29 -0.5056 0.57609 0.0975511 0.0974519 -4.66729e-05 0.0975878 1.7145e-06 273.33 
-0.49 -0.27 -0.166098 0.761832 0.0976092 0.0973602 -9.40455e-05 0.0974596 1.71246e-06 273.297 
-0.35 -0.33 -1.05758 0.716567 0.0976739 0.0973457 0.000137899 0.097565 1.71408e-06 273.334 
-0.39 -0.31 -0.396113 0.842202 0.0975277 0.0971328 5.75676e-06 0.0973851 1.71143e-06 273.252 
-0.43 -0.29 -0.628553 0.559814 0.097661 0.097289 -9.5625e-05 0.0975693 1.71426e-06 273.316 
-0.47 -0.27 -0.247445 0.568508 0.0976428 0.0971891 -0.000215931 0.0973752 1.71243e-06 273.065 
-0.33 -0.33 -1.18951 0.7978 0.0976099 0.0971738 8.58487e-05 0.0974301 1.71312e-06 273.108 
-0.37 -0.31 -0.78667 1.2582 0.0974739 0.0971526 -2.10952e-05 0.0973545 1.71212e-06 273.056 
-0.41 -0.29 -0.647538 1.08943 0.0976228 0.0972537 -6.15662e-05 0.0974941 1.71504e-06 272.982 
-0.45 -0.27 -0.0454769 1.04333 0.0976481 0.0973384 -0.000108116 0.0975397 1.71313e-06 273.414 
-0.35 -0.31 -1.13462 0.891194 0.0974346 0.0973617 9.16951e-05 0.0974365 1.71152e-06 273.382 
-0.39 -0.29 -0.774043 0.911394 0.097408 0.0970201 -0.000118674 0.0972566 1.71102e-06 272.957 
-0.43 -0.27 -0.462959 0.807986 0.0975849 0.0972175 -0.000101867 0.097452 1.7147e-06 272.918 
-0.37 -0.29 -0.560856 1.48711 0.0974261 0.0970753 2.54084e-06 0.0972403 1.71028e-06 273.029 
-0.41 -0.27 -0.669786 1.01958 0.0976422 0.0973143 -5.63234e-05 0.0974647 1.71648e-06 272.67 
-0.35 -0.29 -0.820403 1.00049 0.0976229 0.0973502 -3.44339e-05 0.0975212 1.71408e-06 273.211 
-0.39 -0.27 -0.604384 1.03026 0.0977254 0.0970044 -4.38264e-05 0.0973958 1.71418e-06 272.844 
-0.33 -0.29 -0.959117 1.2283 0.0975711 0.0970855 0.000133755 0.097329 1.71162e-06 273.065 
-0.37 -0.27 -0.799104 1.52109 0.0977639 0.0970956 -0.000120456 0.0974583 1.71553e-06 272.805 
-0.35 -0.27 -1.0936 1.27864 0.0977498 0.097108 -2.04053e-05 0.097479 1.71602e-06 272.784 
-0.41 -0.37 -0.332376 0.654306 0.097536 0.0973065 3.10054e-05 0.0974958 1.71496e-06 273 
-0.35 -0.37 -0.541775 0.244362 0.0977053 0.0973082 -1.99496e-06 0.0974694 1.71479e-06 272.953 
-0.45 -0.25 -0.359706 1.02885 0.097658 0.0972121 -0.000202089 0.0974754 1.71409e-06 273.081 
-0.37 -0.25 -0.892515 1.41951 0.0977416 0.0970333 -1.5049e-05 0.097396 1.71478e-06 272.748 
-0.35 -0.25 -0.705337 1.48841 0.0977428 0.0970186 6.19614e-05 0.0974546 1.71702e-06 272.558 
-0.33 -0.49 -0.521383 0.0189258 0.0973398 0.0973243 0.000110641 0.097375 1.7142e-06 272.782 
-0.31 -0.49 -0.639991 0.0350368 0.0974336 0.0972114 0.000193501 0.0973648 1.71224e-06 273.066 
-0.29 -0.49 -0.787869 -0.0418823 0.0975363 0.0975117 0.000123333 0.0975695 1.71667e-06 272.933 
-0.33 -0.47 -0.377489 0.13296 0.0975148 0.0972075 0.000154756 0.0973622 1.71463e-06 272.678 
-0.27 -0.49 -0.552244 0.0807903 0.0975769 0.0975212 0.000200283 0.0975465 1.7156e-06 273.04 
-0.31 -0.47 -0.54296 0.0698076 0.0974173 0.0972957 0.000126944 0.0973501 1.71252e-06 272.981 
-0.29 -0.47 -0.579607 0.0725916 0.0974522 0.0974525 0.000144553 0.0974303 1.71439e-06 272.907 
-0.27 -0.47 -0.753847 0.0513285 0.0974051 0.0973143 0.000142025 0.0974107 1.71451e-06 272.832 
-0.31 -0.45 -0.420399 0.308896 0.0975142 0.0974219 7.74782e-05 0.0974927 1.7145e-06 273.065 
-0.29 -0.45 -0.461463 0.0957322 0.0974794 0.0974236 0.000119958 0.0974776 1.71447e-06 273.027 
-0.33 -0.43 -0.617582 0.346735 0.0974905 0.0972518 8.42268e-05 0.0974521 1.71358e-06 273.097 
-0.27 -0.45 -0.684916 0.00149551 0.0974613 0.0973378 0.000183295 0.0973569 1.71156e-06 273.152 
-0.31 -0.43 -0.566362 0.198161 0.0974302 0.0973623 5.58916e-05 0.0974073 1.71343e-06 272.996 
-0.29 -0.43 -0.686002 0.281334 0.0974045 0.0972906 0.000160328 0.0973838 1.71149e-06 273.238 
-0.27 -0.43 -0.589824 0.0208998 0.0975101 0.097226 0.000245905 0.097343 1.71027e-06 273.318 
-0.31 -0.41 -0.516814 0.247652 0.0974131 0.0971989 9.71577e-05 0.0972887 1.71058e-06 273.118 
-0.29 -0.41 -0.690074 0.336606 0.0974675 0.0972823 0.000125833 0.0973687 1.71028e-06 273.389 
-0.27 -0.41 -0.896624 0.0109479 0.0973771 0.0972564 0.000152437 0.0972207 1.70928e-06 273.134 
-0.31 -0.39 -0.729251 0.435365 0.0975383 0.0971979 4.09244e-05 0.0973114 1.71454e-06 272.55 
-0.29 -0.39 -0.709663 0.435947 0.0975063 0.0972403 9.30615e-05 0.0973489 1.71227e-06 273.016 
-0.33 -0.37 -0.62416 0.739068 0.0976185 0.0972455 1.23817e-05 0.0974765 1.71312e-06 273.239 
-0.27 -0.39 -0.994607 0.38863 0.0975549 0.0973245 0.000159015 0.0974395 1.71349e-06 273.077 
-0.31 -0.37 -0.871731 0.60496 0.0975623 0.0972038 7.9024e-05 0.0973717 1.71128e-06 273.239 
-0.29 -0.37 -1.03166 0.467157 0.0974965 0.097115 0.000175477 0.097417 1.71193e-06 273.261 
-0.33 -0.35 -0.811569 0.898694 0.0976588 0.0971682 8.45211e-05 0.0974442 1.71305e-06 273.159 
-0.27 -0.37 -1.28132 0.756806 0.0976214 0.0972688 7.87876e-05 0.0974441 1.71244e-06 273.256 
-0.31 -0.35 -0.956161 0.847833 0.0976741 0.0971886 0.000168771 0.0974018 1.7142e-06 272.857 
-0.29 -0.35 -1.33567 0.658715 0.0976364 0.097219 8.05563e-05 0.0974095 1.71338e-06 273.01 
-0.27 -0.35 -1.46032 1.0892 0.0975813 0.0972483 7.03421e-05 0.0973771 1.71448e-06 272.744 
-0.31 -0.33 -1.08621 1.00132 0.0975914 0.096979 9.27873e-05 0.0973249 1.71372e-06 272.719 
-0.29 -0.33 -1.20001 0.86993 0.0976033 0.0972363 0.000144399 0.0974835 1.71407e-06 273.107 
-0.33 -0.31 -1.25025 0.822195 0.0975525 0.0971549 4.13817e-05 0.0973112 1.71242e-06 272.887 
-0.27 -0.33 -1.47198 1.22658 0.0976614 0.097258 0.000167116 0.0975424 1.71597e-06 272.97 
-0.31 -0.31 -1.168 0.874286 0.0975068 0.0970285 0.000125368 0.0973688 1.71432e-06 272.746 
-0.29 -0.31 -1.34511 1.32411 0.0976305 0.0972451 7.54855e-05 0.0975232 1.71537e-06 273.011 
-0.27 -0.31 -1.54198 1.32136 0.0976592 0.0971811 0.000154749 0.0974646 1.71247e-06 273.309 
-0.31 -0.29 -1.4023 0.883498 0.0976048 0.0970552 8.60605e-05 0.0973335 1.71172e-06 273.062 
-0.29 -0.29 -1.336 1.40451 0.0976098 0.0971597 5.87191e-05 0.0974258 1.71416e-06 272.93 
-0.27 -0.29 -1.54412 1.32885 0.0976881 0.0972698 8.37694e-05 0.0974905 1.71455e-06 273.051 
-0.31 -0.27 -1.12042 1.24535 0.0976903 0.0971448 6.34247e-05 0.0973987 1.71191e-06 273.214 
-0.25 -0.29 -1.76679 1.31911 0.0976409 0.0972914 0.000265617 0.0974739 1.71435e-06 273.035 
-0.29 -0.27 -1.43658 1.51421 0.0976637 0.0971706 2.91654e-05 0.0973803 1.71011e-06 273.45 
-0.27 -0.27 -1.87114 1.59439 0.0975635 0.0970926 0.000137027 0.097335 1.71075e-06 273.22 
-0.25 -0.27 -2.14707 1.79451 0.0976025 0.097201 0.000179352 0.0973502 1.7118e-06 273.095 
-0.33 -0.27 -1.12931 1.18742 0.0977579 0.097046 0.000103606 0.0973507 1.71283e-06 272.933 
-0.25 -0.49 -0.639404 -0.177197 0.0975013 0.0975056 0.000269297 0.0975562 1.71651e-06 272.922 
-0.25 -0.47 -0.654823 0.0237332 0.0975954 0.0975354 0.000305681 0.0974567 1.71441e-06 272.977 
-0.25 -0.45 -0.751471 0.120969 0.0973261 0.0973934 0.000171286 0.097284 1.70891e-06 273.371 
-0.25 -0.37 -1.53968 0.708018 0.0975836 0.0973354 0.000103091 0.0974837 1.71252e-06 273.355 
-0.25 -0.35 -1.55699 0.549388 0.0976346 0.0972918 0.000155683 0.0974559 1.71467e-06 272.935 
-0.25 -0.33 -1.67717 0.940365 0.0975962 0.0971796 7.29699e-05 0.0974673 1.71336e-06 273.174 
-0.25 -0.25 -2.28213 1.79519 0.0978569 0.097334 2.44584e-05 0.0976418 1.71597e-06 273.248 
-0.49 -0.25 0.0723145 0.777535 0.0977232 0.0973586 -8.57423e-05 0.0975574 1.71412e-06 273.306 
-0.47 -0.25 -0.0034085 0.598765 0.0976253 0.0972048 -0.000164722 0.0974425 1.71298e-06 273.166 
-0.49 -0.23 -0.0225174 0.585711 0.097383 0.0972735 -0.000188321 0.0973051 1.71083e-06 273.123 
-0.47 -0.23 0.143462 0.931028 0.0975874 0.0972735 -0.000174471 0.0973813 1.71229e-06 273.104 
-0.45 -0.23 -0.107236 1.2981 0.0975549 0.0971203 -0.000228514 0.0973736 1.71164e-06 273.186 
-0.49 -0.21 -0.0609875 0.77554 0.097654 0.0973664 -0.000201472 0.097602 1.71567e-06 273.184 
-0.43 -0.23 -0.423254 1.04034 0.097666 0.0972853 -0.00015213 0.0974326 1.71301e-06 273.133 
-0.47 -0.21 -0.263224 0.712725 0.0975474 0.0973419 -0.000134379 0.097532 1.71549e-06 273.017 
-0.41 -0.23 -0.549146 1.4326 0.0976856 0.0971755 -6.75652e-05 0.0974743 1.71514e-06 272.91 
-0.45 -0.21 -0.0249378 1.3046 0.097613 0.0971425 -0.000286289 0.0974538 1.71426e-06 272.993 
-0.49 -0.19 -0.0320659 0.958234 0.0976026 0.0971828 -0.00020067 0.0974018 1.7148e-06 272.763 
-0.39 -0.23 -0.595836 1.27084 0.0976312 0.0971343 -4.67367e-05 0.0973991 1.71501e-06 272.72 
-0.43 -0.21 -0.344198 1.54714 0.0976386 0.0971216 -0.000221268 0.0974078 1.71381e-06 272.936 
-0.47 -0.19 -0.366954 0.966478 0.0977615 0.0974343 -0.000240981 0.0975984 1.71794e-06 272.812 
-0.41 -0.21 -0.570506 1.35169 0.0976082 0.0971074 -0.000112148 0.0973556 1.71215e-06 273.054 
-0.45 -0.19 -0.858974 1.468 0.0976563 0.097185 -0.000262868 0.0974405 1.71339e-06 273.095 
-0.49 -0.17 -0.177474 1.05411 0.0975499 0.0971817 -0.000229053 0.097374 1.71219e-06 273.1 
-0.39 -0.21 -0.606839 1.41968 0.0976511 0.0970225 7.63959e-07 0.0973611 1.70977e-06 273.45 
-0.43 -0.19 -0.602613 1.39716 0.0976794 0.0970503 -0.000204817 0.0974491 1.71159e-06 273.407 
-0.47 -0.17 -0.321572 1.20904 0.0975785 0.0973862 -0.00024509 0.0975 1.71415e-06 273.14 
-0.41 -0.19 -0.390351 1.38905 0.0976986 0.0970102 -0.000119404 0.0973673 1.71215e-06 273.087 
-0.45 -0.17 -0.257823 1.5645 0.0976847 0.0972243 -0.000279921 0.0974817 1.71385e-06 273.136 
-0.49 -0.15 0.0525071 1.13668 0.0974778 0.0972401 -0.000332396 0.0973432 1.71586e-06 272.429 
-0.39 -0.19 -0.972342 1.98823 0.0978047 0.0970245 -7.39248e-05 0.0973475 1.71017e-06 273.348 
-0.43 -0.17 -0.285612 1.25258 0.0976406 0.0970185 -0.000177548 0.0973926 1.71112e-06 273.323 
-0.47 -0.15 -0.17533 1.38766 0.0976608 0.0973546 -0.000340168 0.0975153 1.71514e-06 273.025 
-0.41 -0.17 -0.806675 1.95774 0.0976576 0.0968923 -0.000220452 0.097247 1.71049e-06 273.014 
-0.45 -0.15 -0.263304 1.44014 0.0976035 0.0971858 -0.000211787 0.0973651 1.71308e-06 272.933 
-0.39 -0.17 -1.08098 2.21199 0.0976226 0.0969158 -9.43865e-05 0.0972883 1.71054e-06 273.123 
-0.43 -0.15 -0.395355 1.7234 0.0976169 0.0968714 -0.000131433 0.0972681 1.70984e-06 273.177 
-0.41 -0.15 -0.879153 2.25372 0.0975642 0.0969356 -0.000163843 0.0972279 1.7111e-06 272.864 
-0.39 -0.15 -0.996058 2.3693 0.0976177 0.0967723 -0.000109928 0.0972682 1.71085e-06 273.017 
-0.43 -0.25 -0.35874 1.02212 0.0977343 0.0972055 -9.70097e-05 0.0975528 1.71375e-06 273.351 
-0.41 -0.25 -0.526122 1.23517 0.0977541 0.0972616 -0.000138672 0.0975619 1.71514e-06 273.155 
-0.39 -0.25 -0.688062 1.28832 0.097789 0.0970779 -8.08578e-05 0.0973764 1.71386e-06 272.84 
-0.37 -0.23 -0.651303 1.66131 0.0975682 0.0969705 -1.43664e-06 0.0973565 1.71501e-06 272.602 
-0.35 -0.23 -1.20914 1.71274 0.0975928 0.0970881 -4.86636e-05 0.0973378 1.71385e-06 272.734 
-0.33 -0.23 -1.46581 1.60596 0.0974968 0.0969806 -2.16119e-05 0.0972625 1.71049e-06 273.057 
-0.37 -0.21 -1.05251 2.0708 0.0977085 0.0970026 -4.41124e-05 0.0974336 1.71253e-06 273.213 
-0.35 -0.21 -1.256 2.18361 0.0976969 0.0971091 -7.00297e-05 0.0973971 1.71296e-06 273.042 
-0.33 -0.21 -1.48637 1.90494 0.0977801 0.0969813 -1.82266e-06 0.0973811 1.7129e-06 273.007 
-0.37 -0.19 -1.23877 2.10803 0.0978168 0.0970343 -3.56547e-05 0.0975521 1.71486e-06 273.173 
-0.35 -0.19 -1.24967 2.30129 0.097698 0.0970147 7.01949e-05 0.0973601 1.71431e-06 272.723 
-0.33 -0.19 -1.36372 2.06502 0.0976322 0.0968992 7.7862e-05 0.0972833 1.71059e-06 273.1 
-0.37 -0.17 -1.1318 2.3909 0.0976255 0.0969565 -4.85555e-06 0.0973657 1.71195e-06 273.114 
-0.35 -0.17 -1.61828 2.26887 0.0977026 0.0970052 9.08981e-05 0.0973488 1.70961e-06 273.441 
-0.33 -0.17 -1.81779 2.37089 0.0977541 0.0969969 4.12114e-05 0.097365 1.71107e-06 273.253 
-0.37 -0.15 -1.06306 2.59208 0.0976133 0.0968539 -3.66405e-05 0.0972356 1.70829e-06 273.334 
-0.35 -0.15 -1.32942 2.61809 0.097618 0.0970103 -4.06143e-05 0.0973408 1.70954e-06 273.429 
-0.33 -0.15 -1.61694 2.61886 0.0976396 0.0969845 5.09026e-05 0.0972204 1.70871e-06 273.223 
-0.35 -0.13 -1.48373 2.96402 0.0976728 0.0968394 -3.88115e-06 0.0972283 1.71009e-06 273.025 
-0.33 -0.13 -1.8537 2.84835 0.0976454 0.0968923 8.63188e-05 0.0972954 1.71225e-06 272.869 
-0.33 -0.09 -1.9549 3.49769 0.0974498 0.0966037 6.35046e-05 0.0970328 1.70903e-06 272.645 
-0.37 -0.13 -1.55259 2.76399 0.0976746 0.0969245 -0.00012161 0.0972218 1.71032e-06 272.971 
-0.37 -0.11 -1.52646 2.78283 0.0975137 0.0967179 -0.000123699 0.0970803 1.70774e-06 272.985 
-0.35 -0.11 -1.79319 3.13988 0.0974597 0.0967997 -1.52075e-05 0.0971627 1.7086e-06 273.079 
-0.33 -0.11 -1.85067 3.30906 0.0974507 0.0967074 0.000115368 0.0971508 1.71117e-06 272.636 
-0.35 -0.09 -1.66021 3.24377 0.0974709 0.0967148 2.4504e-05 0.0971187 1.70883e-06 272.92 
-0.49 -0.13 0.00153541 1.29566 0.0973945 0.0972305 -0.000503337 0.0972836 1.71081e-06 273.066 
-0.47 -0.13 0.0181562 1.55057 0.0974228 0.0971661 -0.000363061 0.0972958 1.71104e-06 273.064 
-0.45 -0.13 -0.226227 1.54378 0.0975223 0.0971372 -0.000168129 0.0972388 1.71123e-06 272.874 
-0.49 -0.11 0.0527386 1.1397 0.097659 0.0972257 -0.000429428 0.0974884 1.71523e-06 272.936 
-0.43 -0.13 -0.757244 2.10655 0.097549 0.0968161 -0.000229181 0.0971902 1.70829e-06 273.207 
-0.47 -0.11 -0.0708337 1.72042 0.0976132 0.0970668 -0.000362538 0.0973714 1.71271e-06 273.009 
-0.41 -0.13 -0.906689 2.58194 0.0975658 0.0969653 -0.000231073 0.0972612 1.71147e-06 272.898 
-0.45 -0.11 -0.516235 2.19369 0.097497 0.0969586 -0.000255586 0.0972429 1.7105e-06 273.002 
-0.49 -0.09 -0.12792 1.28724 0.0974617 0.0971739 -0.000378039 0.0972892 1.71154e-06 272.965 
-0.39 -0.13 -1.25463 2.42702 0.0976099 0.0967847 -0.000117882 0.0972302 1.71042e-06 272.979 
-0.43 -0.11 -0.851173 2.34639 0.0974472 0.0968654 -0.00025651 0.0972294 1.70844e-06 273.293 
-0.47 -0.09 -0.475461 2.01567 0.097451 0.096939 -0.000339317 0.0971461 1.70915e-06 272.945 
-0.41 -0.11 -1.02002 2.82119 0.09748 0.0968563 -0.000257081 0.0972137 1.70902e-06 273.155 
-0.45 -0.09 -0.412687 2.26536 0.0974456 0.0968693 -0.000246527 0.0972333 1.71072e-06 272.94 
-0.39 -0.11 -1.26963 2.83837 0.0974716 0.0968108 -0.000121232 0.0971455 1.70883e-06 272.995 
-0.43 -0.09 -0.55004 2.62016 0.0975679 0.0970264 -0.000292007 0.0972492 1.70855e-06 273.331 
-0.41 -0.09 -0.919805 3.07725 0.0973854 0.0966065 -0.000212113 0.0969831 1.70577e-06 273.028 
-0.39 -0.09 -1.00964 2.85075 0.0975355 0.0967957 -0.000180873 0.0971164 1.7097e-06 272.773 
-0.37 -0.09 -1.33119 3.3617 0.097496 0.0966959 -6.70589e-05 0.0970909 1.70789e-06 272.991 
-0.35 -0.03 -1.79503 4.05891 0.0974145 0.0964561 -5.05314e-05 0.0969979 1.70481e-06 273.223 
-0.37 -0.07 -1.41123 3.33897 0.0973838 0.0965317 -0.00010329 0.0970248 1.70748e-06 272.871 
-0.41 -0.05 -0.99689 3.40948 0.0973321 0.0966017 -0.000232836 0.0969822 1.70502e-06 273.145 
-0.45 -0.03 -0.388092 3.05435 0.0973142 0.0966175 -0.000410316 0.0970226 1.70639e-06 273.039 
-0.35 -0.07 -1.65197 3.60055 0.0975634 0.0965783 1.57638e-05 0.097087 1.70831e-06 272.913 
-0.39 -0.05 -0.935493 3.50798 0.0973755 0.0965738 -0.000201183 0.0970491 1.70945e-06 272.625 
-0.43 -0.03 -0.653796 3.43731 0.0974234 0.0967661 -0.000223398 0.0970957 1.70748e-06 273.07 
-0.33 -0.07 -1.75628 3.55251 0.0975692 0.0966818 7.77329e-05 0.0971254 1.70984e-06 272.778 
-0.37 -0.05 -1.48848 3.79142 0.0973752 0.0965386 -0.000106196 0.0969437 1.70711e-06 272.702 
-0.41 -0.03 -1.07293 3.36733 0.0974551 0.0966921 -0.000163014 0.0970637 1.70635e-06 273.161 
-0.35 -0.05 -1.78318 3.8263 0.0973112 0.0963743 -3.53662e-05 0.0968664 1.70553e-06 272.738 
-0.39 -0.03 -1.50514 3.78644 0.0972907 0.0964839 -0.000118386 0.0968601 1.70711e-06 272.467 
-0.33 -0.05 -2.16759 3.9877 0.0975302 0.0966353 8.14448e-05 0.0971238 1.7099e-06 272.762 
-0.37 -0.03 -1.43019 4.1337 0.0973717 0.0964416 -0.000141474 0.096954 1.70678e-06 272.784 
-0.33 -0.03 -2.01966 4.19955 0.0973768 0.0964988 -5.62532e-06 0.0969468 1.70592e-06 272.9 
-0.33 -0.01 -2.03089 4.16349 0.0974418 0.096338 -5.08522e-05 0.0968706 1.70457e-06 272.903 
-0.49 -0.07 -0.202995 1.52427 0.0973299 0.0970676 -0.000421274 0.0971858 1.70919e-06 273.05 
-0.47 -0.07 -0.453924 2.2083 0.0973842 0.0968032 -0.000344921 0.0970932 1.70805e-06 272.972 
-0.45 -0.07 -0.585299 2.24224 0.0974484 0.0968854 -0.00030864 0.0971542 1.70998e-06 272.836 
-0.49 -0.05 -0.0884743 1.83074 0.0973803 0.0968573 -0.000491285 0.0971032 1.70839e-06 272.947 
-0.43 -0.07 -0.622172 2.82719 0.0975228 0.0969538 -0.000306069 0.0971888 1.70804e-06 273.243 
-0.47 -0.05 -0.0356026 2.28808 0.0974135 0.0969232 -0.000427187 0.0971941 1.71101e-06 272.784 
-0.41 -0.07 -0.85523 3.38522 0.0976029 0.096656 -0.000190605 0.0970467 1.70768e-06 272.9 
-0.45 -0.05 -0.446704 2.5625 0.0974293 0.0968114 -0.000349781 0.0972015 1.71004e-06 272.958 
-0.49 -0.03 -0.0675343 1.9396 0.0973863 0.0968297 -0.000484518 0.097149 1.70859e-06 273.042 
-0.39 -0.07 -1.17055 3.36381 0.0975019 0.096697 -0.000193653 0.0970389 1.70734e-06 272.933 
-0.43 -0.05 -1.0016 3.00516 0.0974154 0.0969461 -0.000252443 0.0971758 1.70883e-06 273.08 
-0.47 -0.03 -0.103459 2.35609 0.0974047 0.0968724 -0.000413708 0.0970808 1.70761e-06 273.008 
-0.27 -0.07 -2.87439 3.92559 0.0976148 0.096766 0.000202733 0.0972038 1.7089e-06 273.147 
-0.31 -0.05 -2.34459 3.73665 0.0976199 0.0967249 9.98396e-05 0.0971879 1.7108e-06 272.8 
-0.27 -0.09 -2.37446 3.58034 0.0975983 0.0968803 0.000188336 0.0972657 1.70832e-06 273.415 
-0.31 -0.07 -1.95838 3.52218 0.0974875 0.0967383 0.000134717 0.0972102 1.71158e-06 272.737 
-0.29 -0.07 -2.47992 3.81256 0.0975109 0.0967877 0.000166781 0.0971702 1.7072e-06 273.325 
-0.25 -0.07 -2.88683 3.28221 0.0975555 0.0971012 0.000194656 0.0973233 1.71083e-06 273.175 
-0.29 -0.05 -2.67962 4.15968 0.0976253 0.0967586 0.000123744 0.0971669 1.70798e-06 273.19 
-0.27 -0.05 -2.49927 3.98097 0.0975673 0.0967176 0.000113276 0.0971795 1.70896e-06 273.07 
-0.31 -0.03 -2.43372 4.06928 0.097375 0.0967724 2.23372e-05 0.0971072 1.71116e-06 272.516 
-0.25 -0.05 -2.69999 3.60767 0.0975084 0.0969585 0.000276937 0.0972064 1.71026e-06 272.937 
-0.29 -0.03 -2.46115 4.1836 0.0974713 0.0967159 8.97735e-05 0.0970943 1.70858e-06 272.89 
-0.27 -0.03 -2.70686 3.9862 0.0974949 0.0966259 0.000184038 0.0972081 1.70851e-06 273.221 
-0.31 -0.01 -2.33188 4.62846 0.0974484 0.096763 -1.06749e-05 0.0971578 1.70994e-06 272.851 
-0.25 -0.03 -2.80353 3.98411 0.0974939 0.0969017 0.000284725 0.0972252 1.71216e-06 272.688 
-0.29 -0.01 -2.59431 4.36056 0.0973346 0.0966052 0.000115626 0.0970669 1.70739e-06 273.004 
-0.27 -0.01 -2.88738 4.18693 0.0972358 0.0965343 0.000165373 0.0970937 1.70856e-06 272.893 
-0.33 -0.25 -1.09985 1.37446 0.0978189 0.0970458 2.76035e-05 0.097451 1.71445e-06 272.955 
-0.31 -0.25 -1.50176 1.45521 0.0978126 0.0971717 2.28678e-05 0.0975223 1.71583e-06 272.935 
-0.29 -0.25 -1.85256 1.96469 0.0976913 0.0969866 0.000193555 0.0973643 1.71192e-06 273.115 
-0.27 -0.25 -2.16338 2.06801 0.0977351 0.0971222 0.000179494 0.0974499 1.71336e-06 273.126 
-0.29 -0.11 -2.49345 3.35755 0.0976778 0.0968642 0.000112577 0.0972616 1.71104e-06 272.968 
-0.27 -0.11 -2.74624 3.19556 0.0975438 0.0968771 0.000248411 0.0972134 1.70815e-06 273.295 
-0.31 -0.09 -2.0706 3.23834 0.0975326 0.0969031 8.51743e-05 0.0972906 1.71152e-06 272.974 
-0.29 -0.09 -1.96278 3.58525 0.0974757 0.0967036 0.000181325 0.0971154 1.7078e-06 273.074 
-0.31 -0.23 -1.64849 1.90102 0.0975174 0.0970929 0.000119171 0.0973606 1.71263e-06 272.993 
-0.29 -0.23 -1.98126 2.13288 0.0976556 0.0969349 6.57755e-05 0.097323 1.71184e-06 273.012 
-0.27 -0.23 -1.81574 2.12089 0.0977546 0.0972651 9.18549e-05 0.0975292 1.71404e-06 273.24 
-0.31 -0.21 -1.81213 2.02357 0.0977852 0.0970939 3.95536e-05 0.0974052 1.71234e-06 273.164 
-0.29 -0.21 -1.72972 2.08565 0.0977067 0.0969204 -6.91846e-06 0.0973728 1.71235e-06 273.07 
-0.27 -0.21 -1.82709 2.42247 0.0976599 0.0971408 9.51666e-05 0.0974245 1.71177e-06 273.308 
-0.31 -0.19 -1.50451 2.40396 0.097689 0.0970652 -5.87567e-06 0.0973131 1.7108e-06 273.151 
-0.25 -0.21 -2.18507 2.23127 0.0978134 0.0971835 0.00018515 0.0974091 1.71186e-06 273.251 
-0.29 -0.19 -1.75497 2.13882 0.0976204 0.0969584 8.79704e-06 0.0973152 1.71172e-06 273.01 
-0.27 -0.19 -2.06362 2.40227 0.0976081 0.0970609 9.99974e-05 0.097353 1.71157e-06 273.139 
-0.31 -0.17 -2.00718 2.53425 0.0976894 0.0970343 6.89134e-05 0.0973721 1.71171e-06 273.17 
-0.25 -0.19 -2.22364 2.60986 0.0974637 0.0970148 0.000175699 0.0972343 1.71382e-06 272.448 
-0.29 -0.17 -2.15047 2.45453 0.097528 0.0968131 0.00015001 0.0972528 1.70917e-06 273.242 
-0.27 -0.17 -2.50196 2.80651 0.0975496 0.09708 0.000123753 0.0973409 1.71145e-06 273.125 
-0.31 -0.15 -1.87156 2.68992 0.0975934 0.096933 0.000114365 0.0972942 1.71157e-06 272.975 
-0.25 -0.17 -2.74801 2.60895 0.0975141 0.0969486 0.000207776 0.0971858 1.71063e-06 272.82 
-0.29 -0.15 -2.21425 2.74439 0.0976756 0.0969893 0.000111123 0.0973416 1.71101e-06 273.197 
-0.27 -0.15 -2.44742 2.96905 0.0976235 0.0968934 0.000213387 0.0972474 1.71073e-06 272.978 
-0.31 -0.13 -2.17252 2.88015 0.0975562 0.0969326 0.000244209 0.0973035 1.71016e-06 273.226 
-0.25 -0.15 -2.58746 2.7189 0.0975319 0.0969742 0.000216162 0.0971945 1.70959e-06 273.011 
-0.29 -0.13 -2.43993 3.18814 0.0974948 0.0969375 0.000172889 0.0972213 1.70951e-06 273.099 
-0.27 -0.13 -2.57514 2.87342 0.0975114 0.0967801 0.00012172 0.0970597 1.70725e-06 273.006 
-0.31 -0.11 -2.10394 3.07817 0.0975855 0.0969323 0.000150278 0.0972569 1.70953e-06 273.196 
-0.25 -0.13 -2.58881 2.88056 0.0976522 0.0969549 0.000254374 0.0972999 1.71141e-06 273.016 
-0.25 -0.23 -2.04221 1.98286 0.0976213 0.0972507 0.000110463 0.0973772 1.71269e-06 273.029 
-0.25 -0.11 -2.90269 2.93754 0.0974865 0.0969582 0.000150083 0.0971657 1.70851e-06 273.103 
-0.25 -0.09 -2.82477 2.99778 0.0976444 0.0969816 0.000149712 0.0973936 1.70942e-06 273.597 
-0.25 -0.01 -3.19865 4.3166 0.097345 0.0969229 0.000203939 0.0971397 1.7106e-06 272.696 
-0.23 -0.49 -0.514343 0.196355 0.0973547 0.0974335 0.000240194 0.0974706 1.71492e-06 272.936 
-0.21 -0.49 -0.737209 -0.0345998 0.097325 0.0970404 0.000229124 0.0972696 1.71056e-06 273.068 
-0.19 -0.49 -0.773756 -0.0114721 0.0973305 0.097357 0.000221703 0.0973403 1.71265e-06 272.933 
-0.23 -0.47 -0.9129 -0.0643462 0.097492 0.0974035 0.000319363 0.0974383 1.71634e-06 272.619 
-0.17 -0.49 -0.551137 -0.265997 0.0973467 0.0974954 0.000235266 0.0974834 1.71451e-06 273.036 
-0.21 -0.47 -0.923492 0.13829 0.0973982 0.09709 0.000277269 0.097301 1.71116e-06 273.059 
-0.15 -0.49 -0.41871 0.08196 0.0974292 0.0975271 0.000245166 0.0975162 1.71568e-06 272.942 
-0.19 -0.47 -0.96471 -0.0146305 0.0975001 0.0973936 0.000168808 0.0973653 1.71289e-06 272.963 