ITEM: TIMESTEP
908500
ITEM: NUMBER OF CELLS
2500
ITEM: BOX BOUNDS ss ss pp
-0.5 0.5
-0.5 0.5
-0.5 0.5
ITEM: CELLS xc yc f_U[*] f_V[*] f_Tau[1] f_Tau[2] f_Tau[3] f_Press[*] f_Mrho[*] f_Ttra[*] 
-0.49 -0.49 -0.00700179 0.0120357 0.0974221 0.0973623 -2.51332e-05 0.0973528 1.71242e-06 273.004 
-0.47 -0.49 -0.0344135 -0.0211702 0.0974572 0.0975323 -1.78322e-05 0.0975468 1.71607e-06 272.965 
-0.45 -0.49 0.043978 -0.0496443 0.0975114 0.0973567 1.17358e-05 0.0975522 1.71564e-06 273.049 
-0.49 -0.47 -0.0779817 0.0690082 0.0973518 0.0973888 -8.3093e-05 0.0973445 1.7134e-06 272.824 
-0.43 -0.49 0.0894925 0.0621419 0.0975314 0.0974587 9.61122e-06 0.0974193 1.71351e-06 273.017 
-0.47 -0.47 0.101684 -0.0319571 0.097383 0.0974354 5.19208e-05 0.0974248 1.71387e-06 272.974 
-0.41 -0.49 0.0434985 0.0712902 0.0975123 0.0973652 0.000110142 0.0974145 1.71437e-06 272.866 
-0.45 -0.47 -0.0732206 -0.041702 0.0973362 0.0973733 -6.73625e-06 0.0974017 1.71406e-06 272.88 
-0.49 -0.45 0.120589 -0.107942 0.0973538 0.0973609 -2.97274e-05 0.0973224 1.71169e-06 273.035 
-0.39 -0.49 -0.0824766 -0.0774535 0.0973988 0.0972704 5.09382e-05 0.0974037 1.71462e-06 272.795 
-0.43 -0.47 -0.107658 0.0345175 0.0972599 0.0973975 8.44764e-05 0.0973203 1.71165e-06 273.035 
-0.47 -0.45 0.150271 -0.0790595 0.0973058 0.0974211 -0.000102954 0.0973276 1.71233e-06 272.947 
-0.37 -0.49 -0.0914367 0.0682569 0.0974313 0.0973362 0.000128608 0.0974829 1.71407e-06 273.106 
-0.41 -0.47 -0.29046 0.223994 0.0973878 0.0974076 7.48299e-05 0.0974374 1.71362e-06 273.049 
-0.45 -0.45 0.10194 0.294816 0.0973213 0.0972448 0.000124965 0.097283 1.71322e-06 272.68 
-0.49 -0.43 -0.0315136 -0.151463 0.0974258 0.0972698 4.43251e-05 0.0974081 1.7129e-06 273.082 
-0.35 -0.49 -0.299323 0.206307 0.0974345 0.0973816 5.64283e-05 0.0975346 1.71496e-06 273.108 
-0.39 -0.47 -0.244117 -0.0342661 0.0974868 0.0973192 0.000107119 0.0974623 1.71263e-06 273.277 
-0.43 -0.45 -0.183363 -0.0306192 0.0974089 0.097502 -4.53511e-06 0.097488 1.71521e-06 272.938 
-0.47 -0.43 -0.0905124 -0.0651747 0.0974242 0.0974625 4.3726e-05 0.0974751 1.714e-06 273.095 
-0.37 -0.47 -0.32279 0.185343 0.0974624 0.0973087 3.81729e-05 0.0973327 1.71051e-06 273.253 
-0.41 -0.45 -0.056999 0.386978 0.0973615 0.0973455 1.95598e-05 0.0973724 1.71356e-06 272.877 
-0.45 -0.43 -0.247451 0.52179 0.0974186 0.0973299 6.63912e-05 0.0974412 1.71345e-06 273.087 
-0.49 -0.41 0.0358948 -0.114727 0.0973438 0.0972873 8.02695e-05 0.0973403 1.71266e-06 272.93 
-0.35 -0.47 -0.395016 0.215512 0.0975096 0.0973544 0.000114076 0.0973918 1.71216e-06 273.155 
-0.39 -0.45 -0.269212 0.0378942 0.0972866 0.0972535 8.43102e-05 0.0972845 1.7101e-06 273.182 
-0.43 -0.43 -0.423153 0.149542 0.0974899 0.0973541 -6.20092e-05 0.097479 1.7128e-06 273.297 
-0.47 -0.41 -0.0835603 0.181097 0.0973655 0.0974197 -3.25356e-05 0.097362 1.71304e-06 272.931 
-0.37 -0.45 -0.338145 0.288979 0.0973288 0.0973944 2.80274e-05 0.0973506 1.71164e-06 273.122 
-0.41 -0.43 -0.467413 0.244763 0.0974009 0.0972891 2.87931e-05 0.0974037 1.71346e-06 272.98 
-0.45 -0.41 -0.245255 0.416378 0.0974641 0.0974659 -7.00275e-06 0.097516 1.71581e-06 272.921 
-0.49 -0.39 -0.169254 0.110286 0.097446 0.0974092 -2.91655e-05 0.0974847 1.71302e-06 273.279 
-0.35 -0.45 -0.42899 0.157725 0.097234 0.0972363 0.000102132 0.0972275 1.7106e-06 272.943 
-0.39 -0.43 -0.186156 0.0271513 0.0974005 0.0972994 7.85806e-05 0.0973879 1.71307e-06 272.998 
-0.43 -0.41 -0.148332 0.338882 0.0973621 0.0973159 5.57616e-05 0.097369 1.71161e-06 273.178 
-0.47 -0.39 -0.328084 0.0831911 0.0974348 0.0974358 -2.16995e-05 0.0974127 1.71377e-06 272.957 
-0.33 -0.45 -0.389005 0.254909 0.0973556 0.0972874 0.000108567 0.0973587 1.71381e-06 272.798 
-0.37 -0.43 -0.534594 0.495066 0.0974608 0.0973795 7.29782e-05 0.0974526 1.71482e-06 272.902 
-0.41 -0.41 -0.411718 0.228011 0.0973244 0.0972178 5.28753e-05 0.0973597 1.71339e-06 272.868 
-0.45 -0.39 -0.100547 0.501486 0.0974996 0.0973535 -6.96011e-05 0.0974372 1.7146e-06 272.892 
-0.35 -0.43 -0.394826 0.29545 0.0974148 0.0973118 0.00010365 0.0973672 1.71219e-06 273.081 
-0.39 -0.41 -0.618154 0.278984 0.0974408 0.0973855 1.10792e-05 0.0974317 1.71351e-06 273.051 
-0.43 -0.39 -0.159418 0.451509 0.0976293 0.0973224 2.94169e-05 0.0974685 1.7147e-06 272.964 
-0.37 -0.41 -0.565249 0.424707 0.0973854 0.0972382 8.00057e-05 0.0973806 1.71057e-06 273.376 
-0.41 -0.39 -0.329957 0.464528 0.0976287 0.097315 6.14128e-05 0.0974744 1.7135e-06 273.172 
-0.35 -0.41 -0.721902 0.324038 0.097423 0.0972839 5.02308e-05 0.0974197 1.71238e-06 273.197 
-0.39 -0.39 -0.544973 0.36063 0.0975631 0.0974234 1.6928e-05 0.0975122 1.71331e-06 273.308 
-0.33 -0.41 -0.65541 0.393166 0.0974735 0.097307 4.24517e-05 0.0974054 1.71212e-06 273.2 
-0.37 -0.39 -0.426352 0.306405 0.0974527 0.0971516 5.27592e-05 0.0974181 1.7116e-06 273.318 
-0.35 -0.39 -0.263008 0.44644 0.0974805 0.0972949 8.76548e-05 0.0974817 1.71173e-06 273.475 
-0.33 -0.39 -0.347752 0.354785 0.097568 0.0972522 8.58272e-05 0.0974438 1.71396e-06 273.013 
-0.37 -0.37 -0.578188 0.200051 0.0976541 0.0971851 9.30542e-05 0.0973626 1.71276e-06 272.977 
-0.49 -0.37 -0.0401334 0.179795 0.0975743 0.0974219 -9.71874e-05 0.0975256 1.71541e-06 273.011 
-0.47 -0.37 0.0181946 0.362346 0.0975698 0.0974782 -3.03377e-05 0.0975646 1.71514e-06 273.163 
-0.45 -0.37 -0.242018 0.312587 0.0974721 0.0971747 -1.00297e-05 0.0973089 1.7129e-06 272.805 
-0.49 -0.35 -0.118646 0.39847 0.0974994 0.0973801 -4.38665e-05 0.0974905 1.71336e-06 273.239 
-0.43 -0.37 -0.329205 0.645968 0.0975095 0.0972979 -3.82561e-05 0.0974553 1.71512e-06 272.861 
-0.47 -0.35 -0.370695 0.198791 0.0975428 0.0973648 -6.16458e-06 0.0974495 1.71483e-06 272.891 
-0.45 -0.35 -0.185487 0.592671 0.0976511 0.0973131 2.32954e-05 0.0974748 1.71306e-06 273.244 
-0.49 -0.33 -0.0745083 0.580711 0.0975227 0.0972944 -0.000136737 0.0974976 1.71492e-06 273.012 
-0.39 -0.37 -0.387688 0.470144 0.0976187 0.0973885 3.78706e-05 0.097569 1.71318e-06 273.489 
-0.43 -0.35 -0.351488 0.69612 0.0975645 0.0971986 -5.33549e-05 0.0974378 1.71336e-06 273.092 
-0.47 -0.33 -0.000306105 0.226103 0.0974709 0.0972817 -2.43355e-05 0.0973933 1.71175e-06 273.224 
-0.41 -0.35 -0.314511 0.501098 0.0975615 0.0972876 -9.12986e-06 0.0975259 1.71511e-06 273.061 
-0.45 -0.33 -0.0541022 0.480339 0.0975034 0.0973746 -6.59159e-05 0.0974593 1.7137e-06 273.098 
-0.49 -0.31 0.128822 0.619526 0.0973207 0.0972494 -0.000103165 0.0972825 1.71163e-06 272.932 
-0.39 -0.35 -0.388234 0.594966 0.0976063 0.0973087 6.14624e-06 0.0975553 1.71425e-06 273.279 
-0.43 -0.33 -0.0109568 0.842725 0.0974681 0.0971373 -4.60137e-05 0.0973859 1.7136e-06 272.909 
-0.47 -0.31 -0.150049 0.205315 0.0974416 0.0972765 -6.26254e-05 0.0974266 1.7119e-06 273.294 
-0.37 -0.35 -0.451568 0.379575 0.0976042 0.0972213 7.84531e-05 0.0974461 1.7131e-06 273.157 
-0.41 -0.33 -0.278954 0.588697 0.0975413 0.0972969 -6.71986e-05 0.0974703 1.71402e-06 273.078 
-0.45 -0.31 -0.141889 0.43156 0.097487 0.0973285 -2.48876e-05 0.097483 1.71253e-06 273.352 
-0.49 -0.29 0.00837752 0.57136 0.0975281 0.0972042 -6.90486e-05 0.0974023 1.71384e-06 272.916 
-0.35 -0.35 -0.701153 0.47648 0.0975416 0.0972986 2.17215e-06 0.0974431 1.71492e-06 272.859 
-0.39 -0.33 -0.406104 0.723106 0.0976107 0.0971635 -1.71017e-05 0.0974618 1.71216e-06 273.351 
-0.43 -0.31 -0.0477703 0.849176 0.0975277 0.0973248 -5.68657e-05 0.09743 1.71265e-06 273.184 
-0.47 -0.29 -0.0659585 0.607135 0.0974997 0.0972001 -0.00014514 0.097375 1.71169e-06 273.182 
-0.37 -0.33 -0.665546 0.699739 0.0976779 0.0972887 7.91857e-05 0.0975359 1.71503e-06 273.1 
-0.41 -0.31 -0.0821825 0.87981 0.097509 0.0972555 -0.000157551 0.0973622 1.71205e-06 273.089 
-0.45 -0.29 -0.545544 0.580659 0.09754 0.0973936 -4.72969e-05 0.09757 1.71461e-06 273.264 
-0.49 -0.27 -0.0848755 0.677195 0.0975808 0.0973564 -7.07888e-05 0.0974405 1.71193e-06 273.327 
-0.35 -0.33 -1.02788 0.726849 0.0977199 0.0973172 0.000130441 0.0975887 1.71452e-06 273.331 
-0.39 -0.31 -0.358971 0.893691 0.0975242 0.0970943 5.52077e-06 0.0973503 1.71138e-06 273.163 
-0.43 -0.29 -0.596571 0.522868 0.0976208 0.097284 -7.80894e-05 0.0975376 1.71285e-06 273.454 
-0.47 -0.27 -0.142589 0.537992 0.0975989 0.0972334 -0.000174759 0.0973628 1.71279e-06 272.973 
-0.33 -0.33 -1.14951 0.744847 0.0976333 0.0971986 8.04616e-05 0.097469 1.71419e-06 273.047 
-0.37 -0.31 -0.763058 1.11962 0.0974286 0.0971229 -1.09914e-05 0.0973259 1.71237e-06 272.936 
-0.41 -0.29 -0.564435 1.20225 0.0975864 0.0972772 -3.93414e-05 0.0974844 1.71502e-06 272.959 
-0.45 -0.27 -0.0236583 1.05035 0.0975892 0.0973009 -9.57838e-05 0.0974989 1.71284e-06 273.347 
-0.35 -0.31 -1.02201 0.956902 0.0974623 0.0973969 0.000129456 0.0974655 1.71187e-06 273.408 
-0.39 -0.29 -0.727917 1.04276 0.0973559 0.0969544 -0.000102538 0.0972126 1.71096e-06 272.843 
-0.43 -0.27 -0.487722 0.802653 0.0975483 0.0972142 -8.20213e-05 0.0974208 1.71394e-06 272.953 
-0.37 -0.29 -0.596825 1.38454 0.0974352 0.0970985 4.49529e-06 0.0972516 1.71067e-06 272.999 
-0.41 -0.27 -0.70858 1.17798 0.097631 0.0973085 -4.68478e-05 0.0974836 1.71631e-06 272.751 
-0.35 -0.29 -0.923924 0.98819 0.0976228 0.0973195 -2.41854e-05 0.097489 1.71303e-06 273.289 
-0.39 -0.27 -0.673665 1.13722 0.0977202 0.0969839 -2.86885e-05 0.097368 1.71331e-06 272.904 
-0.33 -0.29 -0.969848 1.22031 0.0976165 0.0971429 0.000154074 0.0973483 1.71192e-06 273.072 
-0.37 -0.27 -0.811667 1.45151 0.0977484 0.0971012 -0.000117316 0.0974459 1.71492e-06 272.865 
-0.35 -0.27 -1.05215 1.30352 0.0977346 0.0971138 -2.96182e-05 0.0974621 1.71535e-06 272.844 
-0.41 -0.37 -0.28486 0.600176 0.0975413 0.0973141 3.02114e-05 0.0975087 1.71506e-06 273.02 
-0.35 -0.37 -0.510699 0.409181 0.0976802 0.0972802 1.55936e-05 0.0974765 1.7149e-06 272.955 
-0.45 -0.25 -0.315675 1.04323 0.097654 0.0971706 -0.000185131 0.0974453 1.71382e-06 273.039 
-0.37 -0.25 -0.916629 1.36382 0.0976954 0.0970042 -3.3258e-05 0.0973598 1.71361e-06 272.833 
-0.35 -0.25 -0.753451 1.47009 0.097741 0.0970467 1.7329e-05 0.0974504 1.7167e-06 272.596 
-0.33 -0.49 -0.471589 0.0232218 0.0974119 0.0972957 0.000100628 0.0973985 1.71401e-06 272.878 
-0.31 -0.49 -0.613941 0.0197465 0.097462 0.0972335 0.000155713 0.0973606 1.71252e-06 273.009 
-0.29 -0.49 -0.701159 -0.00785651 0.0975106 0.0975287 0.000143634 0.0975495 1.71699e-06 272.828 
-0.33 -0.47 -0.376868 0.200106 0.0975156 0.0972594 0.000126749 0.0974069 1.71542e-06 272.678 
-0.27 -0.49 -0.506341 0.0344572 0.0975477 0.0974522 0.000228419 0.0974789 1.71472e-06 272.991 
-0.31 -0.47 -0.481927 0.0187924 0.0974261 0.0972635 0.000117566 0.0973485 1.71261e-06 272.962 
-0.29 -0.47 -0.605884 0.145474 0.0974456 0.0974363 0.000190179 0.0974129 1.71426e-06 272.88 
-0.27 -0.47 -0.691656 -0.0410783 0.0973875 0.0972787 0.000170933 0.0973908 1.71425e-06 272.819 
-0.31 -0.45 -0.438921 0.328285 0.0975042 0.097383 9.46753e-05 0.0974996 1.71496e-06 273.01 
-0.29 -0.45 -0.5093 0.165373 0.0974537 0.0973558 0.000138791 0.0974301 1.71341e-06 273.063 
-0.33 -0.43 -0.66935 0.256277 0.0974057 0.0972119 8.27634e-05 0.0973944 1.71263e-06 273.086 
-0.27 -0.45 -0.747609 -0.0376125 0.0974859 0.0973663 0.000174226 0.097391 1.71137e-06 273.278 
-0.31 -0.43 -0.562389 0.297017 0.0973885 0.0973048 5.24922e-05 0.0973592 1.71224e-06 273.05 
-0.29 -0.43 -0.694302 0.381566 0.0973873 0.0972489 0.000164804 0.0973653 1.71075e-06 273.305 
-0.27 -0.43 -0.588455 -0.0658478 0.0974774 0.0972214 0.000221654 0.097347 1.70975e-06 273.413 
-0.31 -0.41 -0.571675 0.23942 0.0974095 0.0971648 8.5835e-05 0.0972617 1.71017e-06 273.106 
-0.29 -0.41 -0.605089 0.378846 0.0975015 0.097259 9.38325e-05 0.0973743 1.71051e-06 273.368 
-0.27 -0.41 -0.823942 0.00793796 0.0974443 0.0972609 0.000146279 0.0972798 1.70953e-06 273.26 
-0.31 -0.39 -0.763977 0.364788 0.0976452 0.0972405 5.64297e-05 0.0973936 1.71537e-06 272.649 
-0.29 -0.39 -0.720649 0.445228 0.0975542 0.0972158 8.69025e-05 0.0973754 1.71278e-06 273.01 
-0.33 -0.37 -0.628813 0.641861 0.0975941 0.0972384 6.67908e-06 0.0974515 1.71264e-06 273.245 
-0.27 -0.39 -0.933445 0.395117 0.0975509 0.0972655 0.000144449 0.0974381 1.71361e-06 273.053 
-0.31 -0.37 -0.892304 0.605929 0.0975392 0.0972035 7.59183e-05 0.0973704 1.71173e-06 273.164 
-0.29 -0.37 -1.06288 0.380146 0.0974929 0.0971372 0.000157849 0.0974295 1.71176e-06 273.324 
-0.33 -0.35 -0.771221 0.826278 0.0976701 0.0972217 8.5966e-05 0.0974499 1.71313e-06 273.162 
-0.27 -0.37 -1.28753 0.768929 0.097634 0.0972293 8.47917e-05 0.0974611 1.71239e-06 273.312 
-0.31 -0.35 -0.938231 0.848228 0.0976696 0.0971914 0.000137775 0.0974189 1.71498e-06 272.781 
-0.29 -0.35 -1.38486 0.630238 0.0976388 0.097227 8.04768e-05 0.0974302 1.71342e-06 273.061 
-0.27 -0.35 -1.46175 1.06759 0.0975778 0.0971912 6.82459e-05 0.0973453 1.71406e-06 272.722 
-0.31 -0.33 -1.08359 1.02279 0.0976082 0.0970015 9.11845e-05 0.0973528 1.71367e-06 272.805 
-0.29 -0.33 -1.14594 0.918006 0.0975792 0.097233 0.000133814 0.0974912 1.71378e-06 273.175 
-0.33 -0.31 -1.26535 0.76382 0.0975317 0.0971913 6.63856e-05 0.0973448 1.71351e-06 272.808 
-0.27 -0.33 -1.54679 1.26512 0.0976066 0.0972218 0.000130455 0.0975021 1.71504e-06 273.005 
-0.31 -0.31 -1.21343 0.893758 0.0974963 0.0970268 0.000119046 0.097385 1.71458e-06 272.751 
-0.29 -0.31 -1.41772 1.31091 0.0976485 0.0972515 9.56518e-05 0.0975437 1.71541e-06 273.063 
-0.27 -0.31 -1.53153 1.40761 0.0976654 0.097194 0.000120514 0.0974766 1.7135e-06 273.178 
-0.31 -0.29 -1.45363 0.95756 0.0976431 0.0970585 9.06469e-05 0.0973176 1.71202e-06 272.969 
-0.29 -0.29 -1.47627 1.41659 0.0976506 0.0972 4.70346e-05 0.0974627 1.71435e-06 273.004 
-0.27 -0.29 -1.62723 1.33532 0.09771 0.0972392 8.59722e-05 0.0974804 1.71476e-06 272.988 
-0.31 -0.27 -1.16286 1.27475 0.0977366 0.0971681 6.72633e-05 0.0974238 1.71248e-06 273.193 
-0.25 -0.29 -1.78183 1.36278 0.0976715 0.0973005 0.000223667 0.097512 1.71527e-06 272.995 
-0.29 -0.27 -1.43124 1.49561 0.097714 0.0972383 2.96875e-05 0.0974444 1.71071e-06 273.534 
-0.27 -0.27 -1.82317 1.63878 0.0975997 0.0970483 0.000129771 0.097317 1.71053e-06 273.205 
-0.25 -0.27 -2.17708 1.75771 0.0976456 0.0972439 0.000151267 0.0974005 1.7129e-06 273.061 
-0.33 -0.27 -1.19405 1.21565 0.0977863 0.0970738 7.05131e-05 0.0973636 1.71242e-06 273.035 
-0.25 -0.49 -0.574327 -0.113674 0.0974501 0.0974921 0.000256851 0.0975123 1.71502e-06 273.036 
-0.25 -0.47 -0.626494 0.168397 0.0975995 0.0975577 0.000302441 0.0975006 1.71425e-06 273.126 
-0.25 -0.45 -0.718997 0.199372 0.0973709 0.0973768 0.00019387 0.0973326 1.70918e-06 273.465 
-0.25 -0.37 -1.47673 0.730163 0.097585 0.0973347 0.000114743 0.0974928 1.71271e-06 273.35 
-0.25 -0.35 -1.65368 0.661018 0.0976329 0.0973062 0.000148321 0.0974667 1.71504e-06 272.905 
-0.25 -0.33 -1.70751 0.907205 0.0975564 0.0971926 5.21431e-05 0.0974521 1.71334e-06 273.135 
-0.25 -0.25 -2.22371 1.80131 0.0977733 0.0973584 6.22954e-05 0.0976226 1.71606e-06 273.18 
-0.49 -0.25 0.00632566 0.739323 0.0976689 0.0973617 -9.71467e-05 0.0975214 1.71408e-06 273.211 
-0.47 -0.25 -0.0821395 0.564294 0.0976109 0.0971874 -0.000178461 0.0974207 1.71266e-06 273.156 
-0.49 -0.23 -0.0224997 0.582473 0.0973653 0.0972688 -0.000200342 0.0973334 1.71103e-06 273.17 
-0.47 -0.23 0.0848195 0.963389 0.0975291 0.0972391 -0.000161287 0.0973294 1.71202e-06 273.002 
-0.45 -0.23 -0.292695 1.20951 0.0975038 0.0970705 -0.000197383 0.0973092 1.71199e-06 272.95 
-0.49 -0.21 -0.0843784 0.784272 0.0976911 0.0973566 -0.000180748 0.0976024 1.71524e-06 273.254 
-0.43 -0.23 -0.512343 1.17648 0.0976297 0.097248 -0.000163394 0.0973967 1.71321e-06 273.001 
-0.47 -0.21 -0.356807 0.757083 0.0975552 0.0972981 -0.000137737 0.0974937 1.71492e-06 273 
-0.41 -0.23 -0.642363 1.55048 0.0976619 0.0971774 -7.16486e-05 0.0974447 1.71378e-06 273.044 
-0.45 -0.21 -0.108616 1.33739 0.0975917 0.0970981 -0.000250715 0.0974048 1.71416e-06 272.872 
-0.49 -0.19 -0.0391962 0.981214 0.0976341 0.0972056 -0.000182234 0.0974396 1.71533e-06 272.783 
-0.39 -0.23 -0.636804 1.41053 0.0976767 0.0971292 -7.67343e-05 0.0974257 1.71502e-06 272.795 
-0.43 -0.21 -0.418462 1.59037 0.0976343 0.0971235 -0.000205701 0.0974196 1.71431e-06 272.89 
-0.47 -0.19 -0.302934 1.0462 0.0977278 0.0973845 -0.00020344 0.0975526 1.71729e-06 272.788 
-0.41 -0.21 -0.604244 1.46994 0.0975895 0.0971253 -0.000135797 0.0973554 1.71159e-06 273.143 
-0.45 -0.19 -0.740603 1.46408 0.0976624 0.0971518 -0.000234631 0.097407 1.71264e-06 273.121 
-0.49 -0.17 -0.215016 1.10849 0.0975638 0.0971783 -0.00020514 0.0973739 1.71212e-06 273.111 
-0.39 -0.21 -0.626554 1.49795 0.0976182 0.0969906 -1.53381e-05 0.0973269 1.70972e-06 273.362 
-0.43 -0.19 -0.553757 1.46432 0.0976846 0.0970323 -0.000198791 0.097458 1.71206e-06 273.356 
-0.47 -0.17 -0.373428 1.26512 0.0976115 0.0973457 -0.000210988 0.0974949 1.71392e-06 273.162 
-0.41 -0.19 -0.429989 1.52541 0.0977591 0.0970436 -0.000130545 0.0974043 1.71223e-06 273.178 
-0.45 -0.17 -0.278404 1.53004 0.0977052 0.0971628 -0.000283224 0.0974385 1.71309e-06 273.138 
-0.49 -0.15 0.057345 1.20996 0.0974293 0.0972226 -0.000287673 0.0973123 1.7142e-06 272.607 
-0.39 -0.19 -0.971145 1.98337 0.0978292 0.096985 -0.000103686 0.0973494 1.71035e-06 273.324 
-0.43 -0.17 -0.318443 1.31253 0.0977114 0.0970521 -0.000189813 0.0974227 1.71124e-06 273.388 
-0.47 -0.15 -0.160882 1.41337 0.0976158 0.0973332 -0.000317534 0.0974929 1.71415e-06 273.12 
-0.41 -0.17 -0.724226 2.08731 0.0976882 0.0969483 -0.000187964 0.0972962 1.71098e-06 273.074 
-0.45 -0.15 -0.337289 1.45009 0.0975697 0.0971675 -0.000241486 0.0973433 1.71229e-06 272.998 
-0.39 -0.17 -1.02458 2.24417 0.0975856 0.0969466 -8.53495e-05 0.0972963 1.71038e-06 273.17 
-0.43 -0.15 -0.467063 1.74223 0.0975404 0.0968908 -0.000134734 0.0972618 1.70979e-06 273.168 
-0.41 -0.15 -0.832458 2.28201 0.0974991 0.0969387 -0.00013325 0.097225 1.71087e-06 272.892 
-0.39 -0.15 -0.972295 2.46007 0.0976371 0.0968663 -7.25438e-05 0.0973514 1.71229e-06 273.02 
-0.43 -0.25 -0.384397 1.15793 0.097701 0.0971832 -7.20079e-05 0.0975137 1.71354e-06 273.276 
-0.41 -0.25 -0.606265 1.35126 0.0977382 0.0972399 -0.000112811 0.0975591 1.7149e-06 273.187 
-0.39 -0.25 -0.75254 1.35604 0.0977637 0.097073 -9.45119e-05 0.0973789 1.71332e-06 272.934 
-0.37 -0.23 -0.664387 1.56399 0.0975691 0.0969879 -2.04995e-05 0.0973487 1.71463e-06 272.64 
-0.35 -0.23 -1.19392 1.6766 0.0976123 0.0970924 -7.12892e-05 0.0973484 1.71446e-06 272.666 
-0.33 -0.23 -1.46671 1.64888 0.0975515 0.0969617 -3.69374e-05 0.0972577 1.71075e-06 273.003 
-0.37 -0.21 -1.08871 2.02688 0.0977369 0.0970286 -5.47748e-05 0.0974445 1.71221e-06 273.295 
-0.35 -0.21 -1.2286 2.0617 0.0976997 0.0971307 -0.000112101 0.0974421 1.71365e-06 273.058 
-0.33 -0.21 -1.5432 1.98864 0.097747 0.0969357 -4.10035e-06 0.0973443 1.71189e-06 273.065 
-0.37 -0.19 -1.23526 2.12083 0.0977972 0.0970866 -6.44719e-05 0.0975656 1.71496e-06 273.195 
-0.35 -0.19 -1.33318 2.25016 0.097669 0.0970162 7.12101e-05 0.0973421 1.71383e-06 272.749 
-0.33 -0.19 -1.46783 2.15906 0.0975731 0.0968629 6.50449e-05 0.0972509 1.70966e-06 273.158 
-0.37 -0.17 -1.15214 2.48908 0.0975316 0.0969559 -3.15485e-05 0.0973234 1.71157e-06 273.056 
-0.35 -0.17 -1.62472 2.30974 0.0976141 0.0969951 8.73975e-05 0.0973149 1.71011e-06 273.266 
-0.33 -0.17 -1.81625 2.36294 0.0977073 0.0969987 2.07872e-05 0.0973509 1.7114e-06 273.161 
-0.37 -0.15 -1.03616 2.71569 0.0976572 0.0968514 -1.0304e-05 0.0972522 1.70942e-06 273.2 
-0.35 -0.15 -1.30388 2.66785 0.0976216 0.0970148 -3.86073e-05 0.0973576 1.71084e-06 273.27 
-0.33 -0.15 -1.64717 2.62994 0.0976376 0.0969696 3.42808e-05 0.0971978 1.70914e-06 273.092 
-0.35 -0.13 -1.50732 2.98322 0.0977152 0.0968779 1.67653e-06 0.097273 1.71098e-06 273.01 
-0.33 -0.13 -1.8213 2.84713 0.0976884 0.0969176 9.5998e-05 0.0973357 1.71258e-06 272.93 
-0.33 -0.09 -1.9562 3.48352 0.0974768 0.09663 6.17553e-05 0.0970728 1.70983e-06 272.632 
-0.37 -0.13 -1.60453 2.80243 0.0976818 0.0968879 -0.000102412 0.0972206 1.70966e-06 273.072 
-0.37 -0.11 -1.56548 2.86712 0.0975248 0.0967355 -0.000131323 0.0971196 1.70762e-06 273.116 
-0.35 -0.11 -1.78711 3.09047 0.0975139 0.096836 -3.5512e-05 0.0972111 1.70946e-06 273.079 
-0.33 -0.11 -1.77382 3.19209 0.0974744 0.0967485 0.000100369 0.0971707 1.71143e-06 272.65 
-0.35 -0.09 -1.6496 3.09764 0.0974763 0.0966895 2.48878e-05 0.0971077 1.70911e-06 272.843 
-0.49 -0.13 -0.0163966 1.35027 0.0973367 0.0972171 -0.000451981 0.0972776 1.71049e-06 273.101 
-0.47 -0.13 -0.0362189 1.62788 0.0974198 0.0972092 -0.000339255 0.0972838 1.71054e-06 273.11 
-0.45 -0.13 -0.307605 1.55423 0.0974627 0.0971183 -0.000163028 0.0972259 1.71114e-06 272.852 
-0.49 -0.11 0.0204157 1.2738 0.0976072 0.0972108 -0.000425552 0.0974526 1.71465e-06 272.928 
-0.43 -0.13 -0.773134 2.09236 0.0975269 0.0967964 -0.000237025 0.0971594 1.7085e-06 273.086 
-0.47 -0.11 -0.141621 1.83964 0.0975813 0.0971158 -0.00036505 0.0973731 1.71264e-06 273.025 
-0.41 -0.13 -1.0263 2.60167 0.0975691 0.096969 -0.000273853 0.0972579 1.71143e-06 272.895 
-0.45 -0.11 -0.529614 2.1099 0.0975297 0.096996 -0.00026177 0.097273 1.71064e-06 273.064 
-0.49 -0.09 -0.138827 1.41464 0.0974589 0.0972127 -0.000400194 0.0973078 1.71182e-06 272.974 
-0.39 -0.13 -1.37949 2.56422 0.0976374 0.0968528 -0.000124721 0.0972949 1.71144e-06 272.998 
-0.43 -0.11 -0.90382 2.4019 0.0974735 0.0968504 -0.00027055 0.097231 1.70871e-06 273.254 
-0.47 -0.09 -0.390375 2.05305 0.0974567 0.096964 -0.000382227 0.09719 1.71013e-06 272.912 
-0.41 -0.11 -1.06836 2.84279 0.0974575 0.0968414 -0.000281778 0.097183 1.70858e-06 273.14 
-0.45 -0.09 -0.290112 2.25412 0.0975008 0.0969492 -0.000256355 0.0972795 1.71086e-06 273.047 
-0.39 -0.11 -1.3512 2.87935 0.0974766 0.0968139 -0.000127012 0.0971599 1.70899e-06 273.009 
-0.43 -0.09 -0.55856 2.72037 0.097633 0.0969853 -0.000306959 0.097253 1.70869e-06 273.32 
-0.41 -0.09 -0.922089 3.14396 0.0974966 0.0966864 -0.000200083 0.0970631 1.70687e-06 273.076 
-0.39 -0.09 -1.02705 2.92556 0.0975379 0.0968015 -0.000179381 0.0971132 1.70979e-06 272.75 
-0.37 -0.09 -1.3501 3.35566 0.097504 0.0967188 -9.39707e-05 0.0971122 1.7084e-06 272.97 
-0.35 -0.03 -1.87339 4.12601 0.0973931 0.0964687 -6.73111e-05 0.0969911 1.70498e-06 273.176 
-0.37 -0.07 -1.2978 3.31606 0.0974373 0.0965393 -8.10041e-05 0.0970613 1.70884e-06 272.757 
-0.41 -0.05 -0.926264 3.43442 0.0973398 0.0966502 -0.000289402 0.0970192 1.70642e-06 273.025 
-0.45 -0.03 -0.357576 3.11617 0.0973661 0.0966576 -0.000369491 0.0970589 1.70705e-06 273.036 
-0.35 -0.07 -1.55615 3.54201 0.0975955 0.0965705 -1.8079e-05 0.0970819 1.70855e-06 272.86 
-0.39 -0.05 -0.91187 3.51195 0.0973697 0.0966176 -0.000204607 0.0970725 1.70958e-06 272.67 
-0.43 -0.03 -0.65688 3.33994 0.0974576 0.096796 -0.000248193 0.0971349 1.70792e-06 273.111 
-0.33 -0.07 -1.79855 3.62217 0.0976183 0.0967273 5.60462e-05 0.0971666 1.71116e-06 272.683 
-0.37 -0.05 -1.40396 3.84868 0.097383 0.0965487 -0.000105175 0.0969689 1.70789e-06 272.648 
-0.41 -0.03 -1.07765 3.43289 0.0974313 0.0966942 -0.000177582 0.0970544 1.7065e-06 273.111 
-0.35 -0.05 -1.76431 3.78601 0.0973199 0.0964169 -5.01023e-05 0.0968889 1.70606e-06 272.716 
-0.39 -0.03 -1.43696 3.78807 0.0972762 0.0964835 -0.000145585 0.0968859 1.70794e-06 272.407 
-0.33 -0.05 -2.11111 4.0155 0.0974731 0.0965996 8.10313e-05 0.0970714 1.70894e-06 272.769 
-0.37 -0.03 -1.50513 4.19729 0.0973857 0.0964371 -0.000125394 0.0969839 1.70788e-06 272.693 
-0.33 -0.03 -2.08009 4.19309 0.0973885 0.0964979 1.30814e-05 0.0969566 1.7062e-06 272.884 
-0.33 -0.01 -2.05696 4.25408 0.0973971 0.0963596 -5.1718e-05 0.0968914 1.70464e-06 272.95 
-0.49 -0.07 -0.1582 1.60056 0.0973806 0.097143 -0.000439033 0.0972375 1.71017e-06 273.04 
-0.47 -0.07 -0.447099 2.19694 0.0974155 0.096846 -0.000353523 0.0971325 1.70867e-06 272.983 
-0.45 -0.07 -0.605062 2.29522 0.097449 0.0969246 -0.000342567 0.0971641 1.71077e-06 272.737 
-0.49 -0.05 -0.0841794 1.92928 0.0974232 0.096888 -0.000518826 0.0971625 1.70893e-06 273.027 
-0.43 -0.07 -0.603251 2.88957 0.0974818 0.0968927 -0.00031406 0.0971641 1.70834e-06 273.125 
-0.47 -0.05 -0.00785274 2.27567 0.0974784 0.0970001 -0.000435104 0.0972517 1.71188e-06 272.807 
-0.41 -0.07 -0.789525 3.41684 0.0975712 0.0966802 -0.000182318 0.0970692 1.70816e-06 272.887 
-0.45 -0.05 -0.454011 2.55346 0.0974352 0.0968067 -0.000352843 0.0971812 1.71027e-06 272.865 
-0.49 -0.03 -0.10773 1.99391 0.0974525 0.0968766 -0.000466608 0.0971777 1.70881e-06 273.088 
-0.39 -0.07 -1.03269 3.38466 0.0975515 0.0967382 -0.000200888 0.0970904 1.70769e-06 273.022 
-0.43 -0.05 -0.937897 3.00832 0.0974061 0.0969358 -0.000251141 0.0971756 1.70917e-06 273.025 
-0.47 -0.03 -0.0715699 2.35251 0.0974169 0.0969193 -0.000392619 0.097122 1.70833e-06 273.009 
-0.27 -0.07 -2.80584 3.91023 0.0975534 0.096766 0.000203659 0.0971919 1.70912e-06 273.079 
-0.31 -0.05 -2.37354 3.81711 0.0975729 0.0967454 9.76103e-05 0.0971641 1.71064e-06 272.758 
-0.27 -0.09 -2.41897 3.66345 0.0976303 0.0968715 0.000137547 0.0973067 1.70885e-06 273.445 
-0.31 -0.07 -1.96299 3.6015 0.0975102 0.0967433 0.000118673 0.0971929 1.71159e-06 272.688 
-0.29 -0.07 -2.44737 3.83465 0.0975298 0.0968516 0.000174414 0.0972214 1.70836e-06 273.283 
-0.25 -0.07 -2.82237 3.38384 0.0975007 0.0970757 0.000136093 0.0972953 1.71028e-06 273.184 
-0.29 -0.05 -2.64497 4.16787 0.0976091 0.096792 0.000124455 0.097154 1.70795e-06 273.159 
-0.27 -0.05 -2.47625 4.0255 0.0975609 0.0967371 0.000135991 0.0971806 1.70845e-06 273.154 
-0.31 -0.03 -2.45375 4.16541 0.0973911 0.0967731 3.02989e-05 0.0970914 1.71005e-06 272.647 
-0.25 -0.05 -2.73328 3.62531 0.0974881 0.0969361 0.000257691 0.0971921 1.71001e-06 272.937 
-0.29 -0.03 -2.48503 4.19074 0.0974897 0.0967393 7.7984e-05 0.0971176 1.70908e-06 272.876 
-0.27 -0.03 -2.83861 4.11414 0.0974862 0.0966381 0.000191797 0.0972126 1.70775e-06 273.356 
-0.31 -0.01 -2.34335 4.6637 0.0974549 0.0967803 -2.3317e-05 0.0971694 1.70998e-06 272.877 
-0.25 -0.03 -2.93263 4.00404 0.0975229 0.0969371 0.000255144 0.0972573 1.71179e-06 272.836 
-0.29 -0.01 -2.71859 4.44772 0.0973577 0.0966191 0.000114291 0.0970837 1.70729e-06 273.067 
-0.27 -0.01 -3.0084 4.32758 0.09724 0.0965936 0.000155979 0.0971091 1.70856e-06 272.936 
-0.33 -0.25 -1.04032 1.36367 0.0977957 0.0970288 1.59776e-05 0.0974252 1.71415e-06 272.931 
-0.31 -0.25 -1.48196 1.59794 0.0978244 0.0972132 1.7194e-05 0.0975389 1.71555e-06 273.027 
-0.29 -0.25 -1.88606 1.91928 0.0977171 0.0970623 0.000212076 0.0974236 1.71282e-06 273.138 
-0.27 -0.25 -2.19293 2.05572 0.0977235 0.0971089 0.000186852 0.0974419 1.71373e-06 273.044 
-0.29 -0.11 -2.4206 3.43406 0.0976606 0.0968653 0.00010162 0.0972657 1.71089e-06 273.004 
-0.27 -0.11 -2.64583 3.24655 0.0975431 0.096883 0.000236496 0.0972427 1.70796e-06 273.407 
-0.31 -0.09 -2.1048 3.3001 0.0976103 0.0969426 7.48361e-05 0.0973455 1.71243e-06 272.981 
-0.29 -0.09 -2.0232 3.581 0.0975315 0.0967814 0.000129118 0.0971852 1.7088e-06 273.111 
-0.31 -0.23 -1.69808 2.03208 0.0975415 0.0971447 0.00010187 0.0973917 1.71267e-06 273.073 
-0.29 -0.23 -1.97805 2.07433 0.0976759 0.0969698 6.75977e-05 0.0973353 1.71147e-06 273.106 
-0.27 -0.23 -1.85796 2.09777 0.0977943 0.0972171 0.000143029 0.0975134 1.71343e-06 273.293 
-0.31 -0.21 -1.84693 2.18878 0.0977268 0.0971142 4.5763e-05 0.0973709 1.71203e-06 273.116 
-0.29 -0.21 -1.78089 2.0974 0.0976562 0.0969428 8.91988e-06 0.0973456 1.71213e-06 273.03 
-0.27 -0.21 -1.84459 2.32834 0.0976834 0.0971249 9.26783e-05 0.0974225 1.71148e-06 273.349 
-0.31 -0.19 -1.55056 2.41128 0.0976327 0.0970901 -1.61419e-05 0.0972912 1.70961e-06 273.28 
-0.25 -0.21 -2.1435 2.14118 0.0978355 0.0972368 0.000213389 0.0974486 1.71216e-06 273.314 
-0.29 -0.19 -1.71938 2.12174 0.0976317 0.0969689 -4.76955e-06 0.0972959 1.71174e-06 272.952 
-0.27 -0.19 -2.02636 2.38967 0.0975924 0.0970297 0.000114346 0.0973352 1.71047e-06 273.266 
-0.31 -0.17 -1.92496 2.49239 0.097674 0.0970691 4.54896e-05 0.0973925 1.71227e-06 273.139 
-0.25 -0.19 -2.18539 2.51703 0.0974596 0.0970708 0.000180678 0.0972657 1.71309e-06 272.653 
-0.29 -0.17 -2.12703 2.40221 0.0975106 0.0968169 0.00014272 0.0972193 1.70905e-06 273.166 
-0.27 -0.17 -2.44302 2.81336 0.0975417 0.0970391 0.00014367 0.097318 1.71136e-06 273.076 
-0.31 -0.15 -1.99129 2.6857 0.0975947 0.0969341 7.90192e-05 0.0973074 1.71173e-06 272.986 
-0.25 -0.17 -2.75023 2.4982 0.0975202 0.0970162 0.000215402 0.0972368 1.71095e-06 272.913 
-0.29 -0.15 -2.17764 2.6379 0.0976539 0.0969739 0.000116933 0.0973399 1.71141e-06 273.128 
-0.27 -0.15 -2.40692 3.00974 0.0975909 0.0968626 0.000179633 0.0972092 1.71055e-06 272.9 
-0.31 -0.13 -2.04837 2.85043 0.097552 0.0969108 0.00019823 0.0973015 1.71009e-06 273.232 
-0.25 -0.15 -2.66699 2.73102 0.0975149 0.0969768 0.000206439 0.097189 1.70878e-06 273.126 
-0.29 -0.13 -2.41409 3.10966 0.0975123 0.0969112 0.000178001 0.097225 1.71005e-06 273.023 
-0.27 -0.13 -2.64051 3.00646 0.0975265 0.0968193 0.000114113 0.0970941 1.70782e-06 273.012 
-0.31 -0.11 -2.06216 3.11583 0.097564 0.0969197 0.000161634 0.0972513 1.71033e-06 273.052 
-0.25 -0.13 -2.62367 2.94399 0.0976132 0.0969369 0.000227092 0.0972653 1.71092e-06 272.998 
-0.25 -0.23 -2.09247 1.93536 0.0976948 0.0973131 0.000150479 0.0974454 1.71401e-06 273.009 
-0.25 -0.11 -2.9017 3.02994 0.0975232 0.0969852 0.00015355 0.0972064 1.70904e-06 273.133 
-0.25 -0.09 -2.80548 3.06457 0.0976825 0.0970026 0.000159449 0.0974223 1.70976e-06 273.624 
-0.25 -0.01 -3.20145 4.20604 0.0973058 0.0969126 0.000183128 0.0971102 1.71038e-06 272.647 
-0.23 -0.49 -0.52069 0.217949 0.0973247 0.0974603 0.000242361 0.0974602 1.71461e-06 272.956 
-0.21 -0.49 -0.707973 -0.0392348 0.0973139 0.0970702 0.000216692 0.0972984 1.71097e-06 273.082 
-0.19 -0.49 -0.840784 0.0380318 0.0973427 0.0973191 0.000205975 0.09734 1.71238e-06 272.974 
-0.23 -0.47 -0.857674 -0.0402428 0.0975247 0.0974364 0.000312205 0.0974704 1.71651e-06 272.682 
-0.17 -0.49 -0.662661 -0.273739 0.0973471 0.0974662 0.000237084 0.0974508 1.71445e-06 272.955 
-0.21 -0.47 -0.824682 0.166283 0.0974399 0.0971137 0.000260662 0.0973242 1.7107e-06 273.198 
-0.15 -0.49 -0.577446 0.090342 0.0973902 0.0975433 0.000247354 0.0975168 1.71552e-06 272.97 