ITEM: TIMESTEP
933000
ITEM: NUMBER OF CELLS
2500
ITEM: BOX BOUNDS ss ss pp
-0.5 0.5
-0.5 0.5
-0.5 0.5
ITEM: CELLS xc yc f_U[*] f_V[*] f_Tau[1] f_Tau[2] f_Tau[3] f_Press[*] f_Mrho[*] f_Ttra[*] 
-0.49 -0.49 0.0033962 0.0214602 0.0974145 0.0974315 -2.02068e-05 0.097393 1.71266e-06 273.079 
-0.47 -0.49 -0.0269446 -0.0296758 0.0974288 0.0974558 -1.79625e-05 0.0974751 1.71456e-06 273.005 
-0.45 -0.49 0.0400433 -0.0332571 0.0974784 0.0973788 -3.15235e-05 0.0975383 1.71471e-06 273.159 
-0.49 -0.47 -0.0232 0.000638541 0.0973674 0.0974322 -3.36144e-05 0.0973496 1.71275e-06 272.942 
-0.43 -0.49 0.0572025 0.0506139 0.0975172 0.0974067 8.9102e-06 0.0974049 1.71343e-06 272.988 
-0.47 -0.47 0.122468 0.0114802 0.0973898 0.0973896 4.62405e-05 0.0973862 1.71304e-06 272.999 
-0.41 -0.49 -0.0160629 0.0751503 0.0974948 0.097359 9.09911e-05 0.0974112 1.71462e-06 272.818 
-0.45 -0.47 -0.0860879 0.0915341 0.0973205 0.0974124 -3.10564e-05 0.0974201 1.71373e-06 272.984 
-0.49 -0.45 0.0693101 -0.100947 0.0973605 0.0973753 -1.84761e-05 0.0973191 1.71154e-06 273.05 
-0.39 -0.49 -0.106492 -0.051247 0.0974194 0.0972936 7.21354e-05 0.0974127 1.71483e-06 272.788 
-0.43 -0.47 -0.0931058 -0.0042488 0.0972581 0.0973246 6.14074e-05 0.0973181 1.71189e-06 272.991 
-0.47 -0.45 0.12003 -0.0911076 0.0973129 0.0974074 -6.33816e-05 0.0973333 1.71122e-06 273.14 
-0.37 -0.49 -0.182353 0.0816651 0.097411 0.0972816 0.000128129 0.097403 1.71376e-06 272.931 
-0.41 -0.47 -0.276868 0.193678 0.097405 0.0973779 4.38863e-05 0.0974148 1.71377e-06 272.962 
-0.45 -0.45 0.13533 0.305653 0.097385 0.0972967 0.00011221 0.0973619 1.71323e-06 272.899 
-0.49 -0.43 -0.0614966 -0.166161 0.0974121 0.0972489 2.48936e-05 0.0973876 1.71286e-06 273.03 
-0.35 -0.49 -0.314686 0.178467 0.0974541 0.0973796 7.09773e-05 0.0975139 1.71556e-06 272.955 
-0.39 -0.47 -0.244365 0.0158252 0.0974796 0.0972891 0.000139005 0.0974197 1.71204e-06 273.252 
-0.43 -0.45 -0.112967 -0.0371659 0.0974036 0.0974706 -1.20298e-05 0.0974555 1.71456e-06 272.951 
-0.47 -0.43 -0.169073 -0.0287065 0.097501 0.0974679 -2.2192e-05 0.0975236 1.71401e-06 273.229 
-0.37 -0.47 -0.251956 0.233208 0.0974491 0.0972709 4.84914e-05 0.0973243 1.71083e-06 273.177 
-0.41 -0.45 -0.0621008 0.434573 0.0973329 0.0972614 1.26034e-05 0.0973451 1.7137e-06 272.778 
-0.45 -0.43 -0.321742 0.46231 0.0974801 0.0973269 5.59271e-05 0.097469 1.71363e-06 273.136 
-0.49 -0.41 -0.00694751 -0.0602257 0.0974032 0.0973327 3.35202e-05 0.0973943 1.71384e-06 272.894 
-0.35 -0.47 -0.353212 0.0860849 0.0974831 0.0973218 0.000136509 0.0973828 1.71166e-06 273.209 
-0.39 -0.45 -0.229258 0.0558329 0.0972684 0.097243 7.69497e-05 0.0972431 1.70987e-06 273.103 
-0.43 -0.43 -0.472869 0.237099 0.0975318 0.0973499 -1.83919e-05 0.0974687 1.7133e-06 273.189 
-0.47 -0.41 -0.119207 0.203914 0.0973843 0.0973789 -3.76294e-05 0.0973539 1.7123e-06 273.026 
-0.37 -0.45 -0.26958 0.215763 0.0973578 0.0973677 5.08623e-05 0.0973592 1.71167e-06 273.141 
-0.41 -0.43 -0.408174 0.174149 0.0974222 0.0972201 5.66003e-05 0.0973772 1.71289e-06 272.998 
-0.45 -0.41 -0.175041 0.374957 0.0974222 0.0973802 7.79406e-06 0.0974544 1.71442e-06 272.97 
-0.49 -0.39 -0.173833 0.168791 0.0974232 0.0974351 -1.63412e-05 0.0974677 1.71287e-06 273.255 
-0.35 -0.45 -0.377446 0.136422 0.0973016 0.0972394 9.07717e-05 0.0972527 1.7104e-06 273.046 
-0.39 -0.43 -0.141503 0.00349188 0.0974119 0.0972837 8.37069e-05 0.0973763 1.71203e-06 273.131 
-0.43 -0.41 -0.111505 0.324893 0.0973788 0.0972618 8.18157e-05 0.09735 1.71061e-06 273.285 
-0.47 -0.39 -0.230489 0.0328766 0.0973912 0.0973819 -2.10658e-06 0.0973876 1.71289e-06 273.027 
-0.33 -0.45 -0.428985 0.230493 0.0974281 0.0973475 9.64203e-05 0.097397 1.71462e-06 272.777 
-0.37 -0.43 -0.488554 0.44472 0.0974753 0.0973472 6.9633e-05 0.0974203 1.71322e-06 273.066 
-0.41 -0.41 -0.433412 0.210852 0.0973799 0.0972395 7.9637e-05 0.0973752 1.71335e-06 272.918 
-0.45 -0.39 -0.0962776 0.494467 0.0974411 0.097298 -4.65818e-05 0.0973761 1.71268e-06 273.027 
-0.35 -0.43 -0.465297 0.335772 0.097409 0.0973212 8.32297e-05 0.097352 1.71159e-06 273.133 
-0.39 -0.41 -0.749789 0.27099 0.0974585 0.0973333 3.73481e-06 0.0973948 1.71299e-06 273.03 
-0.43 -0.39 -0.202995 0.460125 0.0975278 0.0972815 -2.4595e-06 0.0973979 1.71363e-06 272.938 
-0.37 -0.41 -0.717113 0.476411 0.0974168 0.0972075 6.61431e-05 0.0973431 1.71046e-06 273.289 
-0.41 -0.39 -0.39514 0.493346 0.0975872 0.0972925 5.99744e-05 0.0974569 1.7133e-06 273.154 
-0.35 -0.41 -0.777333 0.294512 0.0974651 0.0973276 7.11111e-05 0.0974386 1.71293e-06 273.163 
-0.39 -0.39 -0.559367 0.399409 0.0975745 0.0974156 3.82634e-05 0.0975169 1.71263e-06 273.43 
-0.33 -0.41 -0.736305 0.351857 0.0974814 0.0973363 5.08325e-05 0.0973937 1.71222e-06 273.15 
-0.37 -0.39 -0.467443 0.3163 0.097477 0.0971297 1.32769e-05 0.0974238 1.71132e-06 273.378 
-0.35 -0.39 -0.384049 0.352403 0.0974859 0.0972851 6.92307e-05 0.0974521 1.71106e-06 273.499 
-0.33 -0.39 -0.464563 0.403364 0.0976135 0.0972833 0.000109591 0.0974471 1.71333e-06 273.122 
-0.37 -0.37 -0.60605 0.219495 0.0976229 0.0971805 7.65469e-05 0.0973484 1.71279e-06 272.933 
-0.49 -0.37 0.0202612 0.135039 0.0975584 0.0974574 -7.14877e-05 0.0975257 1.71451e-06 273.155 
-0.47 -0.37 -0.0530441 0.427671 0.0975937 0.097432 -1.52153e-05 0.0975509 1.71462e-06 273.209 
-0.45 -0.37 -0.34137 0.318619 0.0975499 0.0971969 -2.36906e-05 0.0973749 1.71364e-06 272.871 
-0.49 -0.35 -0.137189 0.351438 0.0975068 0.0973578 -7.3583e-05 0.0974734 1.71313e-06 273.229 
-0.43 -0.37 -0.311285 0.633522 0.0975605 0.0972306 -2.55914e-05 0.0974337 1.71499e-06 272.822 
-0.47 -0.35 -0.36623 0.305169 0.0975645 0.0973709 -1.31426e-05 0.0974769 1.71545e-06 272.869 
-0.45 -0.35 -0.146902 0.554515 0.0976441 0.0972815 2.94447e-05 0.0974552 1.7132e-06 273.167 
-0.49 -0.33 -0.0634257 0.545803 0.0975319 0.0972879 -0.000121562 0.097488 1.71484e-06 272.998 
-0.39 -0.37 -0.447253 0.531171 0.0975842 0.0973957 1.72164e-05 0.0975452 1.71358e-06 273.359 
-0.43 -0.35 -0.405511 0.693234 0.0976157 0.0971659 -4.49067e-05 0.0974376 1.71305e-06 273.142 
-0.47 -0.33 0.116388 0.195372 0.097496 0.0973134 -2.90116e-05 0.097397 1.71302e-06 273.031 
-0.41 -0.35 -0.389405 0.560151 0.0976103 0.0973287 3.17988e-05 0.0975717 1.71615e-06 273.024 
-0.45 -0.33 -0.0933223 0.61173 0.0975196 0.0973331 -5.99538e-05 0.0974305 1.71335e-06 273.072 
-0.49 -0.31 0.0913714 0.576824 0.0973526 0.0972876 -0.00011333 0.0973277 1.71216e-06 272.974 
-0.39 -0.35 -0.446284 0.588324 0.0976361 0.097321 7.13198e-06 0.0975851 1.71519e-06 273.214 
-0.43 -0.33 -0.0927174 0.85747 0.0974832 0.0971023 -3.4725e-05 0.0973728 1.71363e-06 272.866 
-0.47 -0.31 -0.204752 0.23714 0.0974025 0.09725 -6.04891e-05 0.0973805 1.71114e-06 273.286 
-0.37 -0.35 -0.478271 0.407272 0.0975982 0.0972222 7.83869e-05 0.0974175 1.71326e-06 273.051 
-0.41 -0.33 -0.30981 0.668752 0.0975783 0.0973325 -4.08351e-05 0.0974762 1.71445e-06 273.027 
-0.45 -0.31 -0.125646 0.622222 0.0974544 0.097279 3.57105e-06 0.0974559 1.71175e-06 273.399 
-0.49 -0.29 0.0149607 0.560736 0.097449 0.0972191 -7.24636e-05 0.0973749 1.7133e-06 272.926 
-0.35 -0.35 -0.726771 0.531633 0.0975232 0.0972811 3.96155e-06 0.0974108 1.71401e-06 272.912 
-0.39 -0.33 -0.437282 0.710944 0.0976368 0.0972405 2.67026e-06 0.0975191 1.71389e-06 273.235 
-0.43 -0.31 -0.102821 0.898169 0.0975353 0.0973284 -4.64838e-05 0.0974174 1.71193e-06 273.263 
-0.47 -0.29 -0.11621 0.635242 0.0974406 0.0971694 -0.000130486 0.0973466 1.71076e-06 273.251 
-0.37 -0.33 -0.703861 0.661811 0.0976984 0.0972666 6.74456e-05 0.0975415 1.71535e-06 273.066 
-0.41 -0.31 -0.188992 0.903138 0.0975274 0.097231 -0.000160466 0.0973791 1.71225e-06 273.104 
-0.45 -0.29 -0.562546 0.606569 0.0975316 0.0973318 -7.04591e-05 0.0975301 1.71349e-06 273.33 
-0.49 -0.27 -0.0507066 0.644501 0.0975855 0.0973214 -4.43481e-05 0.0974733 1.71247e-06 273.333 
-0.35 -0.33 -0.958087 0.737307 0.0977017 0.0973035 0.000152057 0.0975525 1.71411e-06 273.295 
-0.39 -0.31 -0.455533 0.884611 0.0975804 0.0971972 -2.43324e-06 0.0974386 1.71325e-06 273.112 
-0.43 -0.29 -0.53364 0.704211 0.0976406 0.0972997 -0.000119868 0.0975588 1.71301e-06 273.488 
-0.47 -0.27 -0.112312 0.643482 0.0976213 0.0972431 -0.000169268 0.0974222 1.71325e-06 273.067 
-0.33 -0.33 -1.19518 0.733966 0.0976117 0.0971497 0.00010989 0.0974214 1.71419e-06 272.914 
-0.37 -0.31 -0.824171 1.05707 0.0974806 0.0971219 3.88364e-06 0.0973662 1.71371e-06 272.836 
-0.41 -0.29 -0.561526 1.16862 0.0976224 0.0972683 -7.08304e-05 0.0974964 1.71481e-06 273.026 
-0.45 -0.27 -0.0199913 0.999636 0.097577 0.0972988 -0.000134299 0.0974755 1.71202e-06 273.411 
-0.35 -0.31 -1.00962 0.937752 0.0975205 0.0973348 0.000143745 0.0974769 1.71272e-06 273.303 
-0.39 -0.29 -0.739109 1.07926 0.0974385 0.0969993 -7.57566e-05 0.0972412 1.71131e-06 272.868 
-0.43 -0.27 -0.513186 0.861785 0.0975123 0.0971813 -0.000110201 0.09742 1.71393e-06 272.951 
-0.37 -0.29 -0.738685 1.34334 0.0974656 0.0971126 5.18088e-05 0.0972734 1.71127e-06 272.964 
-0.41 -0.27 -0.612455 1.20844 0.0975717 0.0972911 -7.78914e-05 0.0974369 1.71548e-06 272.753 
-0.35 -0.29 -1.05068 0.914576 0.0976206 0.0972746 1.62341e-05 0.097461 1.71372e-06 273.101 
-0.39 -0.27 -0.637158 1.23628 0.0976109 0.0969666 -2.87238e-05 0.0973069 1.71208e-06 272.93 
-0.33 -0.29 -1.02978 1.21998 0.0976349 0.0971125 0.000127471 0.0973341 1.71227e-06 272.975 
-0.37 -0.27 -0.831133 1.40516 0.0977014 0.0971121 -6.8727e-05 0.0973965 1.71389e-06 272.892 
-0.35 -0.27 -1.09313 1.19123 0.0977703 0.09709 -2.00455e-05 0.0974569 1.71498e-06 272.887 
-0.41 -0.37 -0.321812 0.602826 0.0975524 0.0973342 3.99972e-05 0.0975153 1.71525e-06 273.007 
-0.35 -0.37 -0.588491 0.42357 0.0976289 0.0972487 -2.14757e-05 0.097398 1.71364e-06 272.936 
-0.45 -0.25 -0.343755 1.12058 0.0976963 0.0971658 -0.000167523 0.097475 1.71333e-06 273.202 
-0.37 -0.25 -0.787596 1.42089 0.0976609 0.0970397 -5.73555e-05 0.0973603 1.71359e-06 272.838 
-0.35 -0.25 -0.755427 1.39657 0.0976771 0.0970229 1.65783e-05 0.0973723 1.71492e-06 272.659 
-0.33 -0.49 -0.425311 0.00927774 0.0973654 0.0972741 0.000109983 0.0973535 1.71315e-06 272.889 
-0.31 -0.49 -0.606747 0.0537109 0.0974537 0.0973052 0.000125395 0.0973915 1.71325e-06 272.981 
-0.29 -0.49 -0.691115 0.00683883 0.0975099 0.0974366 0.000145842 0.0975042 1.71717e-06 272.672 
-0.33 -0.47 -0.347893 0.190986 0.0975195 0.097313 0.000110364 0.0974413 1.71565e-06 272.738 
-0.27 -0.49 -0.548139 0.0282215 0.097551 0.0974989 0.000227191 0.0975071 1.71604e-06 272.859 
-0.31 -0.47 -0.448108 0.128855 0.0974482 0.097283 0.00010226 0.0973674 1.71313e-06 272.931 
-0.29 -0.47 -0.62216 0.0479416 0.0974353 0.0973748 0.000185136 0.0973725 1.71398e-06 272.81 
-0.27 -0.47 -0.681268 -0.0220362 0.0974156 0.0973005 0.000154168 0.0974044 1.71387e-06 272.917 
-0.31 -0.45 -0.459045 0.436176 0.0975111 0.0973281 9.561e-05 0.0974606 1.71389e-06 273.071 
-0.29 -0.45 -0.629008 0.163006 0.0974652 0.097378 0.000114807 0.097407 1.71306e-06 273.054 
-0.33 -0.43 -0.694429 0.212082 0.0974102 0.0972601 6.31893e-05 0.0973853 1.71284e-06 273.028 
-0.27 -0.45 -0.860183 -0.127402 0.0974657 0.0973285 0.000175468 0.0973464 1.71107e-06 273.201 
-0.31 -0.43 -0.636281 0.41573 0.097396 0.0972433 0.000101778 0.097313 1.7116e-06 273.022 
-0.29 -0.43 -0.757519 0.455609 0.0974083 0.0973017 0.000195012 0.0973744 1.7111e-06 273.275 
-0.27 -0.43 -0.699066 -0.0892884 0.0974804 0.0972357 0.000175968 0.0973708 1.70997e-06 273.446 
-0.31 -0.41 -0.660613 0.326354 0.0974088 0.0971247 9.14015e-05 0.0972463 1.71065e-06 272.987 
-0.29 -0.41 -0.682872 0.545296 0.097514 0.0972848 9.12756e-05 0.0973937 1.7107e-06 273.394 
-0.27 -0.41 -0.969298 -0.045499 0.0975227 0.0972989 0.000164147 0.0973521 1.71032e-06 273.336 
-0.31 -0.39 -0.833266 0.372764 0.0976791 0.0971983 4.96781e-05 0.0974029 1.71454e-06 272.806 
-0.29 -0.39 -0.764839 0.571459 0.0975993 0.0972414 0.000127653 0.0974225 1.71281e-06 273.137 
-0.33 -0.37 -0.647907 0.536559 0.0975628 0.0972478 -2.58211e-06 0.0974143 1.71228e-06 273.198 
-0.27 -0.39 -0.989407 0.362738 0.0975671 0.0972431 0.00017385 0.0974396 1.71347e-06 273.08 
-0.31 -0.37 -0.8342 0.655456 0.0975359 0.0971329 0.000120055 0.0973179 1.71145e-06 273.06 
-0.29 -0.37 -1.0034 0.457336 0.0975021 0.0971625 0.000183922 0.097377 1.71141e-06 273.233 
-0.33 -0.35 -0.892189 0.680546 0.0976291 0.0971956 9.07629e-05 0.0974315 1.71343e-06 273.064 
-0.27 -0.37 -1.19074 0.72297 0.0976215 0.0972234 0.000135002 0.0974286 1.71244e-06 273.212 
-0.31 -0.35 -1.01559 0.856143 0.0975888 0.0971194 0.000115007 0.0973592 1.71464e-06 272.667 
-0.29 -0.35 -1.41223 0.737496 0.0976228 0.0972157 9.74179e-05 0.0973824 1.71311e-06 272.976 
-0.27 -0.35 -1.47894 1.00755 0.097628 0.097202 8.65888e-05 0.0973807 1.71448e-06 272.754 
-0.31 -0.33 -1.19461 0.985939 0.0976058 0.0970112 9.26622e-05 0.0973597 1.71415e-06 272.748 
-0.29 -0.33 -1.19456 0.938867 0.0975862 0.0971619 7.69618e-05 0.0974212 1.71409e-06 272.93 
-0.33 -0.31 -1.21311 0.8548 0.0976188 0.0971443 9.26586e-05 0.0973734 1.71382e-06 272.838 
-0.27 -0.33 -1.49266 1.15604 0.0976396 0.0972345 0.000106198 0.0975013 1.71547e-06 272.935 
-0.31 -0.31 -1.16268 0.966176 0.0976023 0.097055 9.71441e-05 0.0974525 1.7143e-06 272.984 
-0.29 -0.31 -1.4105 1.21931 0.097668 0.0971823 0.000104457 0.0975041 1.7157e-06 272.905 
-0.27 -0.31 -1.45907 1.28309 0.0976592 0.0971838 8.80608e-05 0.0974685 1.7136e-06 273.14 
-0.31 -0.29 -1.43236 1.04311 0.0976782 0.0970875 9.80771e-05 0.0973518 1.71164e-06 273.126 
-0.29 -0.29 -1.37888 1.32763 0.0977003 0.0971314 5.881e-05 0.0974325 1.71356e-06 273.046 
-0.27 -0.29 -1.66523 1.32743 0.0977199 0.0972069 0.000125135 0.0974893 1.71452e-06 273.052 
-0.31 -0.27 -1.20933 1.20914 0.0977378 0.0971407 3.79685e-05 0.0974339 1.71214e-06 273.276 
-0.25 -0.29 -1.80971 1.31721 0.0976654 0.0972514 0.000205495 0.0974868 1.71435e-06 273.071 
-0.29 -0.27 -1.47429 1.52537 0.0976876 0.097147 6.6155e-05 0.0973816 1.70989e-06 273.488 
-0.27 -0.27 -1.76823 1.61954 0.0976163 0.0970586 0.000120073 0.0973228 1.71021e-06 273.272 
-0.25 -0.27 -2.12832 1.67323 0.0976743 0.0972248 0.000171073 0.0973799 1.71207e-06 273.135 
-0.33 -0.27 -1.26345 1.23629 0.0978148 0.0970919 7.10266e-05 0.0973849 1.71233e-06 273.108 
-0.25 -0.49 -0.601857 -0.132992 0.0974667 0.0974675 0.000262377 0.097499 1.71504e-06 272.996 
-0.25 -0.47 -0.573014 0.0753936 0.097603 0.097549 0.00028877 0.0975127 1.71488e-06 273.059 
-0.25 -0.45 -0.888912 0.153994 0.0974196 0.0973862 0.000180786 0.0973544 1.71061e-06 273.297 
-0.25 -0.37 -1.39024 0.606728 0.0975578 0.0973331 0.000142379 0.0974825 1.71316e-06 273.25 
-0.25 -0.35 -1.68152 0.63848 0.0977278 0.0973294 0.000161905 0.0975115 1.71558e-06 272.946 
-0.25 -0.33 -1.60054 0.905885 0.0976218 0.0972108 7.35249e-05 0.0974767 1.71406e-06 273.089 
-0.25 -0.25 -2.29351 1.83987 0.0977509 0.0972986 6.56569e-05 0.0975401 1.71441e-06 273.211 
-0.49 -0.25 -0.0486404 0.701386 0.0976993 0.0973609 -0.00010508 0.0975443 1.71372e-06 273.333 
-0.47 -0.25 -0.0759743 0.640479 0.0976837 0.0972484 -0.000185989 0.0975115 1.71357e-06 273.266 
-0.49 -0.23 0.0135882 0.530385 0.0973778 0.0972359 -0.00022187 0.097357 1.7117e-06 273.13 
-0.47 -0.23 0.0476076 1.09674 0.0974688 0.097289 -0.000166359 0.0973567 1.71267e-06 272.974 
-0.45 -0.23 -0.199228 1.23726 0.097462 0.0970894 -0.000172678 0.0973077 1.71251e-06 272.864 
-0.49 -0.21 -0.146929 0.758318 0.097625 0.0972845 -0.000212475 0.0975532 1.71481e-06 273.184 
-0.43 -0.23 -0.422525 1.25082 0.0975693 0.0972451 -0.000175849 0.0973828 1.71319e-06 272.965 
-0.47 -0.21 -0.334049 0.892559 0.097544 0.0972913 -0.000176174 0.0974871 1.71478e-06 273.004 
-0.41 -0.23 -0.659604 1.49509 0.0976775 0.0971178 -5.60849e-05 0.0974212 1.71329e-06 273.057 
-0.45 -0.21 -0.146952 1.38873 0.0975922 0.0971144 -0.000216357 0.0974094 1.71404e-06 272.904 
-0.49 -0.19 -0.0394876 1.01793 0.097605 0.0971835 -0.000215574 0.0974445 1.71514e-06 272.827 
-0.39 -0.23 -0.661084 1.4395 0.0977035 0.0971249 -9.31841e-05 0.0974563 1.71516e-06 272.857 
-0.43 -0.21 -0.395422 1.58702 0.097629 0.0971553 -0.000192336 0.0974313 1.71485e-06 272.837 
-0.47 -0.19 -0.357407 1.12749 0.0976757 0.0973565 -0.000202517 0.0975257 1.71583e-06 272.945 
-0.41 -0.21 -0.60514 1.58695 0.0975347 0.0970482 -0.00014417 0.09731 1.71171e-06 272.997 
-0.45 -0.19 -0.732401 1.45596 0.097622 0.097122 -0.000235393 0.0973887 1.71273e-06 273.055 
-0.49 -0.17 -0.235815 1.16237 0.0975782 0.0971375 -0.000223877 0.0973695 1.71199e-06 273.12 
-0.39 -0.21 -0.754214 1.47485 0.0976199 0.0970013 -3.37428e-05 0.0973626 1.71075e-06 273.298 
-0.43 -0.19 -0.553641 1.49546 0.0976539 0.0970595 -0.000176212 0.097436 1.71266e-06 273.199 
-0.47 -0.17 -0.412426 1.35352 0.0975966 0.097323 -0.00022641 0.0974875 1.71436e-06 273.072 
-0.41 -0.19 -0.453128 1.66975 0.0977381 0.0970229 -0.000141157 0.0973921 1.7123e-06 273.133 
-0.45 -0.17 -0.35108 1.50795 0.0976975 0.0971441 -0.00026766 0.0974361 1.71344e-06 273.075 
-0.49 -0.15 0.031134 1.402 0.0974081 0.0971533 -0.000253926 0.0972484 1.71287e-06 272.639 
-0.39 -0.19 -0.87495 1.92821 0.0977777 0.0969632 -0.00010521 0.0973374 1.71085e-06 273.21 
-0.43 -0.17 -0.409691 1.43587 0.0976991 0.097039 -0.000177401 0.0973992 1.71243e-06 273.133 
-0.47 -0.15 -0.208127 1.41575 0.0975886 0.0973245 -0.000327755 0.0974978 1.71435e-06 273.102 
-0.41 -0.17 -0.669647 1.94217 0.0976507 0.0969523 -0.000162911 0.0973047 1.7114e-06 273.031 
-0.45 -0.15 -0.369924 1.49509 0.0975413 0.0971361 -0.000245398 0.0973359 1.71288e-06 272.883 
-0.39 -0.17 -0.846362 2.23711 0.0975332 0.0969111 -7.5823e-05 0.0972788 1.71104e-06 273.015 
-0.43 -0.15 -0.495012 1.79951 0.0975346 0.0968897 -0.000158701 0.0972489 1.71029e-06 273.051 
-0.41 -0.15 -0.863705 2.04235 0.0975048 0.0969475 -9.4512e-05 0.0972224 1.71075e-06 272.903 
-0.39 -0.15 -1.00454 2.43344 0.0976462 0.0968669 -0.000120177 0.0973306 1.71205e-06 273.001 
-0.43 -0.25 -0.379755 1.13111 0.0977036 0.0971932 -6.15168e-05 0.097549 1.71435e-06 273.245 
-0.41 -0.25 -0.569649 1.28851 0.0976791 0.0971984 -7.90212e-05 0.0974969 1.71495e-06 273.005 
-0.39 -0.25 -0.69222 1.44052 0.0977009 0.0970574 -7.41375e-05 0.0973613 1.71276e-06 272.973 
-0.37 -0.23 -0.760872 1.58224 0.0975656 0.0969698 -1.35266e-05 0.0973264 1.71406e-06 272.669 
-0.35 -0.23 -1.22129 1.69431 0.0976712 0.09708 -5.43489e-05 0.0973811 1.71454e-06 272.746 
-0.33 -0.23 -1.43241 1.64017 0.0976081 0.0969815 -2.62784e-05 0.097277 1.71172e-06 272.903 
-0.37 -0.21 -1.07205 2.0804 0.0977325 0.0969921 -6.61675e-05 0.0974076 1.71198e-06 273.228 
-0.35 -0.21 -1.23167 1.95968 0.0976914 0.0971066 -0.000117446 0.0974283 1.71405e-06 272.956 
-0.33 -0.21 -1.56566 2.00704 0.0977546 0.096939 2.05516e-05 0.097365 1.71256e-06 273.015 
-0.37 -0.19 -1.14612 2.08776 0.0978034 0.0971022 -7.97159e-05 0.0975584 1.71467e-06 273.221 
-0.35 -0.19 -1.2849 2.23853 0.097686 0.0969791 2.72253e-05 0.0973385 1.71299e-06 272.873 
-0.33 -0.19 -1.46865 2.24435 0.0975841 0.0968379 7.32716e-05 0.0972466 1.70898e-06 273.256 
-0.37 -0.17 -1.12135 2.5459 0.0975007 0.0969819 -2.50242e-05 0.0973091 1.71122e-06 273.073 
-0.35 -0.17 -1.66555 2.29734 0.0975381 0.0969464 6.68039e-05 0.0972389 1.70853e-06 273.305 
-0.33 -0.17 -1.78738 2.37057 0.0976108 0.0969321 1.5299e-05 0.0973065 1.71049e-06 273.181 
-0.37 -0.15 -1.04938 2.8418 0.0976272 0.0968803 -2.95407e-05 0.09726 1.71015e-06 273.106 
-0.35 -0.15 -1.24622 2.63741 0.0975908 0.0969721 -1.07054e-05 0.0972994 1.71026e-06 273.199 
-0.33 -0.15 -1.62867 2.60455 0.0975948 0.0969001 3.27152e-05 0.0971616 1.70872e-06 273.058 
-0.35 -0.13 -1.43897 2.99674 0.097689 0.0968582 1.50513e-05 0.0972572 1.71053e-06 273.037 
-0.33 -0.13 -1.77775 2.92134 0.0976401 0.0968591 0.00010698 0.0972883 1.71192e-06 272.903 
-0.33 -0.09 -1.79669 3.5905 0.0974581 0.0965924 4.4368e-05 0.0970415 1.70905e-06 272.667 
-0.37 -0.13 -1.51178 2.87722 0.0976819 0.0968659 -9.70063e-05 0.097219 1.70986e-06 273.036 
-0.37 -0.11 -1.5536 2.92502 0.0974962 0.0966743 -0.000124529 0.0970921 1.70738e-06 273.076 
-0.35 -0.11 -1.71575 3.08821 0.0975336 0.0968061 -2.33035e-05 0.0971918 1.70861e-06 273.161 
-0.33 -0.11 -1.79195 3.31115 0.0975006 0.0966962 0.000120611 0.0971771 1.71113e-06 272.717 
-0.35 -0.09 -1.5478 3.14974 0.0974203 0.0966563 3.81299e-05 0.0970457 1.70773e-06 272.891 
-0.49 -0.13 0.057092 1.47357 0.0974016 0.0972016 -0.000406361 0.0972792 1.71151e-06 272.943 
-0.47 -0.13 0.0583364 1.61972 0.0974698 0.097205 -0.000339268 0.097313 1.71086e-06 273.141 
-0.45 -0.13 -0.186471 1.60411 0.0975074 0.0970736 -0.00018785 0.0972522 1.71124e-06 272.91 
-0.49 -0.11 0.086458 1.28821 0.0975655 0.0971654 -0.000392283 0.0974145 1.71421e-06 272.891 
-0.43 -0.13 -0.658589 2.1419 0.0975045 0.0968508 -0.000258776 0.0971744 1.70894e-06 273.059 
-0.47 -0.11 -0.100054 1.82946 0.0975695 0.0971188 -0.000362732 0.0974109 1.71255e-06 273.146 
-0.41 -0.13 -0.956207 2.4 0.0975657 0.0969361 -0.000247502 0.0972406 1.71018e-06 273.046 
-0.45 -0.11 -0.524575 2.18556 0.0975035 0.096976 -0.000256332 0.0972453 1.70982e-06 273.117 
-0.49 -0.09 -0.125408 1.38433 0.0974472 0.0971867 -0.000418803 0.0973077 1.71191e-06 272.959 
-0.39 -0.13 -1.31823 2.52384 0.0976354 0.0968753 -0.00012076 0.0973011 1.71176e-06 272.964 
-0.43 -0.11 -0.83888 2.33379 0.0974728 0.0968687 -0.000251304 0.0972443 1.70903e-06 273.24 
-0.47 -0.09 -0.355349 2.10779 0.0974451 0.0969819 -0.000351786 0.0972202 1.71062e-06 272.918 
-0.41 -0.11 -0.975583 2.69831 0.0974607 0.0968315 -0.000271393 0.0971918 1.70845e-06 273.186 
-0.45 -0.09 -0.298081 2.31454 0.0974755 0.096904 -0.00023704 0.0972515 1.71018e-06 273.077 
-0.39 -0.11 -1.26598 2.89803 0.0974841 0.0968284 -0.000141112 0.0971709 1.70919e-06 273.009 
-0.43 -0.09 -0.486958 2.63602 0.0975721 0.0969769 -0.000283448 0.0972278 1.70858e-06 273.265 
-0.41 -0.09 -0.888053 2.95915 0.0974521 0.0967491 -0.000217108 0.0971144 1.70755e-06 273.112 
-0.39 -0.09 -0.996187 2.9485 0.0974939 0.0967479 -0.000192763 0.0971082 1.70966e-06 272.757 
-0.37 -0.09 -1.21008 3.38132 0.0974623 0.0966732 -0.000104152 0.0970643 1.70768e-06 272.95 
-0.35 -0.03 -1.98332 4.09443 0.097417 0.0964617 -3.6202e-05 0.0969547 1.70534e-06 273.016 
-0.37 -0.07 -1.32455 3.40874 0.0973842 0.0965023 -7.10609e-05 0.0970117 1.7075e-06 272.832 
-0.41 -0.05 -0.902582 3.36035 0.0974081 0.0967129 -0.000227792 0.0970747 1.70739e-06 273.026 
-0.45 -0.03 -0.317037 3.21265 0.0973398 0.0966526 -0.000375929 0.0970183 1.70677e-06 272.967 
-0.35 -0.07 -1.46969 3.50896 0.0975494 0.0965598 -3.00308e-05 0.0970524 1.7076e-06 272.929 
-0.39 -0.05 -1.02591 3.47337 0.0973625 0.0966111 -0.000157896 0.0970691 1.7089e-06 272.768 
-0.43 -0.03 -0.640404 3.24908 0.0974025 0.096802 -0.000242768 0.0971005 1.70784e-06 273.027 
-0.33 -0.07 -1.71112 3.73106 0.0976002 0.0966475 4.20651e-05 0.0970864 1.70987e-06 272.663 
-0.37 -0.05 -1.46696 3.73088 0.0973728 0.0964974 -0.000118756 0.0969248 1.70705e-06 272.658 
-0.41 -0.03 -1.11558 3.4691 0.0974489 0.0967029 -0.000146815 0.0970952 1.70692e-06 273.159 
-0.35 -0.05 -1.85553 3.87827 0.0973564 0.0964446 -6.86704e-05 0.0968862 1.70658e-06 272.624 
-0.39 -0.03 -1.49081 3.8277 0.0973434 0.0965615 -0.000110937 0.0969536 1.70701e-06 272.746 
-0.33 -0.05 -2.14459 4.05662 0.0974511 0.0965205 7.3065e-05 0.097012 1.70858e-06 272.66 
-0.37 -0.03 -1.63536 4.18964 0.0974421 0.0964018 -0.000109271 0.0969464 1.7068e-06 272.76 
-0.33 -0.03 -2.14825 4.19625 0.0973842 0.0964522 2.2943e-05 0.0969289 1.70618e-06 272.81 
-0.33 -0.01 -2.13753 4.27876 0.0973725 0.0963831 -6.31222e-05 0.0968836 1.7046e-06 272.934 
-0.49 -0.07 -0.103846 1.53401 0.0974397 0.0971238 -0.00038841 0.097261 1.71002e-06 273.13 
-0.47 -0.07 -0.311292 2.28189 0.0974344 0.0968473 -0.000338317 0.0971524 1.70902e-06 272.984 
-0.45 -0.07 -0.546811 2.40339 0.0974417 0.0968823 -0.000284757 0.0971503 1.7107e-06 272.71 
-0.49 -0.05 -0.0996105 1.88647 0.0973841 0.0968784 -0.000504481 0.0971287 1.70774e-06 273.121 
-0.43 -0.07 -0.642068 2.8508 0.0974671 0.096882 -0.000302467 0.0971549 1.70907e-06 272.983 
-0.47 -0.05 -0.0806202 2.35509 0.097488 0.0969512 -0.000407549 0.0972167 1.7112e-06 272.816 
-0.41 -0.07 -0.794977 3.20731 0.0975429 0.0967432 -0.000199949 0.0970942 1.70841e-06 272.918 
-0.45 -0.05 -0.517991 2.65791 0.0974925 0.0967567 -0.00031236 0.0971643 1.71042e-06 272.793 
-0.49 -0.03 -0.0879902 1.92882 0.0973826 0.0968667 -0.000472877 0.0971124 1.70779e-06 273.068 
-0.39 -0.07 -1.10188 3.35685 0.0974917 0.0967393 -0.000205313 0.0970962 1.70791e-06 273.002 
-0.43 -0.05 -0.86889 2.99973 0.0974748 0.0969367 -0.000235002 0.0972089 1.70995e-06 272.993 
-0.47 -0.03 -0.0967931 2.51922 0.0973561 0.0968783 -0.000370465 0.0970874 1.7082e-06 272.932 
-0.27 -0.07 -2.77339 3.93443 0.0975543 0.0967593 0.000227541 0.0971536 1.70892e-06 273.002 
-0.31 -0.05 -2.35139 3.84674 0.0974999 0.0967119 9.1443e-05 0.0970772 1.7097e-06 272.664 
-0.27 -0.09 -2.46785 3.59133 0.0976264 0.0968955 9.63436e-05 0.0972829 1.7086e-06 273.418 
-0.31 -0.07 -1.92178 3.64742 0.0975287 0.0966903 8.9135e-05 0.0971539 1.71097e-06 272.676 
-0.29 -0.07 -2.35017 3.83855 0.0975534 0.0968606 0.000159465 0.0972374 1.70899e-06 273.228 
-0.25 -0.07 -2.83028 3.50001 0.097467 0.0969879 0.000185012 0.0972151 1.70955e-06 273.076 
-0.29 -0.05 -2.563 4.18104 0.0975103 0.0967681 0.000119857 0.0970933 1.70723e-06 273.104 
-0.27 -0.05 -2.50021 4.12567 0.0974847 0.0967244 0.000161237 0.0971101 1.70762e-06 273.088 
-0.31 -0.03 -2.42579 4.19635 0.0973875 0.0967671 1.00101e-05 0.0970876 1.70983e-06 272.672 
-0.25 -0.05 -2.74838 3.59921 0.0974688 0.0968721 0.00028527 0.0971745 1.70979e-06 272.923 
-0.29 -0.03 -2.55915 4.2408 0.0974727 0.0966874 6.10297e-05 0.0970483 1.70835e-06 272.798 
-0.27 -0.03 -2.85145 4.17454 0.0974789 0.096655 0.000217794 0.0971531 1.70746e-06 273.234 
-0.31 -0.01 -2.40867 4.63492 0.0974309 0.0967474 8.04863e-06 0.0971146 1.70937e-06 272.821 
-0.25 -0.03 -2.95211 3.98337 0.0974951 0.0968669 0.000234384 0.0971978 1.71093e-06 272.806 
-0.29 -0.01 -2.78862 4.47954 0.0973587 0.0965927 0.000142197 0.0970589 1.70655e-06 273.116 
-0.27 -0.01 -2.9413 4.27531 0.0972502 0.0966001 0.000142171 0.0970721 1.70812e-06 272.902 
-0.33 -0.25 -1.07338 1.36867 0.097753 0.0970969 1.76134e-06 0.0974505 1.71418e-06 272.996 
-0.31 -0.25 -1.42979 1.57941 0.0977844 0.0971646 3.37652e-05 0.097482 1.7146e-06 273.019 
-0.29 -0.25 -1.8657 1.84528 0.0977234 0.0970092 0.00018595 0.09739 1.71213e-06 273.155 
-0.27 -0.25 -2.17265 1.98706 0.0977186 0.0970936 0.000176691 0.0974453 1.71397e-06 273.016 
-0.29 -0.11 -2.3855 3.34765 0.097634 0.0968072 0.000102989 0.0972288 1.71026e-06 273 
-0.27 -0.11 -2.61488 3.19609 0.0975756 0.0969685 0.000204887 0.0972754 1.70872e-06 273.377 
-0.31 -0.09 -2.0211 3.30926 0.0975972 0.096853 0.000109794 0.09729 1.71135e-06 272.999 
-0.29 -0.09 -2.07525 3.58867 0.0975601 0.0967869 0.000114869 0.0972063 1.70875e-06 273.178 
-0.31 -0.23 -1.74026 1.9164 0.0975365 0.0971069 9.62463e-05 0.097384 1.71325e-06 272.959 
-0.29 -0.23 -1.97603 2.09781 0.0976535 0.0969623 6.8556e-05 0.0973518 1.71214e-06 273.045 
-0.27 -0.23 -1.97946 2.10185 0.0977372 0.0971524 0.000140138 0.0974625 1.71223e-06 273.342 
-0.31 -0.21 -1.88335 2.11585 0.0977769 0.0970985 7.83463e-05 0.0973998 1.71298e-06 273.046 
-0.29 -0.21 -1.89211 2.13024 0.0976608 0.0969217 5.7325e-05 0.097375 1.71263e-06 273.033 
-0.27 -0.21 -1.83888 2.26313 0.0976594 0.0970816 7.38821e-05 0.097416 1.7119e-06 273.264 
-0.31 -0.19 -1.52129 2.32705 0.097659 0.0970582 2.56152e-06 0.0973023 1.71064e-06 273.147 
-0.25 -0.21 -2.17549 2.11232 0.0977623 0.0972137 0.00018412 0.0974546 1.71152e-06 273.433 
-0.29 -0.19 -1.74982 2.20662 0.0976618 0.0969657 4.88832e-05 0.0973323 1.71264e-06 272.912 
-0.27 -0.19 -2.11203 2.3736 0.0976212 0.0970079 0.000134173 0.0973578 1.71172e-06 273.129 
-0.31 -0.17 -1.88043 2.46602 0.0976051 0.0969991 4.47933e-05 0.097321 1.71175e-06 273.021 
-0.25 -0.19 -2.24316 2.42472 0.0975033 0.0970367 0.000206934 0.0972939 1.71278e-06 272.781 
-0.29 -0.17 -2.07989 2.44058 0.0975029 0.0968553 0.000165536 0.0972252 1.70951e-06 273.109 
-0.27 -0.17 -2.36834 2.80936 0.0975273 0.0970292 0.000171014 0.0973114 1.7122e-06 272.922 
-0.31 -0.15 -1.9651 2.61781 0.0975053 0.096874 8.33321e-05 0.0972595 1.71173e-06 272.853 
-0.25 -0.17 -2.71669 2.42173 0.097517 0.0969564 0.000215882 0.0972201 1.71081e-06 272.888 
-0.29 -0.15 -2.21775 2.75735 0.097522 0.0969472 0.000127981 0.0972743 1.71168e-06 272.901 
-0.27 -0.15 -2.4178 2.89002 0.0975074 0.0968906 0.000220699 0.0971964 1.71117e-06 272.765 
-0.31 -0.13 -2.0769 2.77553 0.0975296 0.0968197 0.000208332 0.0972498 1.70981e-06 273.132 
-0.25 -0.15 -2.60348 2.73164 0.0974401 0.0969263 0.000209277 0.0971807 1.70921e-06 273.032 
-0.29 -0.13 -2.33409 3.16952 0.0974986 0.0968641 0.000179532 0.0971925 1.70985e-06 272.964 
-0.27 -0.13 -2.55209 2.89422 0.0974871 0.0968817 0.000116865 0.0971051 1.70824e-06 272.975 
-0.31 -0.11 -2.06167 3.04843 0.0975689 0.0968417 0.000178585 0.0972231 1.71006e-06 273.016 
-0.25 -0.13 -2.57686 2.97899 0.0976117 0.0969228 0.000221032 0.0972654 1.71125e-06 272.945 
-0.25 -0.23 -2.10511 1.92275 0.0976748 0.0972478 0.000127084 0.0974072 1.71361e-06 272.966 
-0.25 -0.11 -2.85984 3.06702 0.097564 0.0968883 0.000153506 0.0971843 1.709e-06 273.077 
-0.25 -0.09 -2.88884 3.19425 0.0976308 0.096889 0.000164423 0.0973193 1.70952e-06 273.373 
-0.25 -0.01 -3.21689 4.26286 0.0973041 0.0968283 0.000224359 0.0970563 1.70909e-06 272.703 
-0.23 -0.49 -0.468311 0.197568 0.097348 0.0974771 0.000244361 0.0975093 1.71551e-06 272.95 
-0.21 -0.49 -0.712782 -0.0158069 0.0973339 0.0970994 0.000226352 0.0973248 1.71127e-06 273.109 
-0.19 -0.49 -0.817104 0.0360173 0.0974148 0.0974241 0.000223824 0.0974259 1.71347e-06 273.042 
-0.23 -0.47 -0.986218 0.0720473 0.0975556 0.0974907 0.000319432 0.0975057 1.71732e-06 272.652 
-0.17 -0.49 -0.718316 -0.225922 0.0974395 0.0974314 0.000253862 0.0974604 1.71394e-06 273.063 
-0.21 -0.47 -0.931838 0.11111 0.097469 0.0971661 0.000260045 0.0973648 1.71181e-06 273.135 
-0.15 -0.49 -0.651717 0.0808981 0.0974403 0.097529 0.000248558 0.0975327 1.7152e-06 273.065 
-0.19 -0.47 -0.981197 0.0314075 0.097548 0.097416 0.000170179 0.0974071 1.71413e-06 272.884 