ITEM: TIMESTEP
981500
ITEM: NUMBER OF CELLS
2500
ITEM: BOX BOUNDS ss ss pp
-0.5 0.5
-0.5 0.5
-0.5 0.5
ITEM: CELLS xc yc f_U[*] f_V[*] f_Tau[1] f_Tau[2] f_Tau[3] f_Press[*] f_Mrho[*] f_Ttra[*] 
-0.49 -0.49 0.039772 -0.0371822 0.0973549 0.0973685 -5.92483e-05 0.0973553 1.71188e-06 273.096 
-0.47 -0.49 -0.0498713 0.0637841 0.097442 0.0974975 -7.40419e-05 0.0974935 1.71421e-06 273.112 
-0.45 -0.49 -0.0630433 -0.0516667 0.0974737 0.0973986 -4.28229e-05 0.0975254 1.71494e-06 273.086 
-0.49 -0.47 -0.0040561 -0.0654137 0.097391 0.0973947 -9.12113e-05 0.0973469 1.71331e-06 272.846 
-0.43 -0.49 -0.0451122 0.0539906 0.0974909 0.0974165 4.1639e-06 0.0974496 1.71445e-06 272.951 
-0.47 -0.47 0.0609849 0.166013 0.097389 0.0973545 8.07029e-06 0.0973821 1.71283e-06 273.021 
-0.41 -0.49 -0.0617207 -0.0453013 0.0974777 0.097423 8.16311e-05 0.0974545 1.71488e-06 272.898 
-0.45 -0.47 -0.111296 0.0440358 0.0973442 0.0974013 1.60036e-06 0.0974015 1.71365e-06 272.944 
-0.49 -0.45 -0.051375 -0.030631 0.0974143 0.0973695 -3.07564e-05 0.0973236 1.71184e-06 273.014 
-0.39 -0.49 -0.144413 0.0775119 0.097433 0.0973898 7.45423e-05 0.0975067 1.71561e-06 272.927 
-0.43 -0.47 -0.131775 0.019703 0.0972845 0.0973629 5.52947e-05 0.0973158 1.71191e-06 272.981 
-0.47 -0.45 0.0463122 0.000288548 0.0972914 0.0973245 -5.13868e-05 0.0972923 1.71133e-06 273.008 
-0.37 -0.49 -0.236059 0.0167441 0.0974035 0.0973248 0.000134606 0.0974381 1.71391e-06 273.005 
-0.41 -0.47 -0.326917 0.113995 0.0973919 0.0974449 7.84123e-06 0.0974665 1.71473e-06 272.955 
-0.45 -0.45 0.0274676 0.287733 0.0973717 0.0973116 7.0435e-05 0.0973417 1.71324e-06 272.843 
-0.49 -0.43 -0.0856503 0.0263507 0.09745 0.0972803 4.65919e-05 0.0973802 1.71368e-06 272.879 
-0.35 -0.49 -0.261751 0.0977382 0.0974233 0.0973757 8.17944e-05 0.0974918 1.71499e-06 272.983 
-0.39 -0.47 -0.355782 0.0997304 0.0975207 0.0973387 0.000117487 0.0974921 1.71349e-06 273.224 
-0.43 -0.45 -0.213126 0.00498727 0.0974387 0.0974998 -3.39077e-05 0.0974961 1.71511e-06 272.977 
-0.47 -0.43 -0.225599 0.0418774 0.0975355 0.0974021 -1.64868e-05 0.097473 1.71363e-06 273.147 
-0.37 -0.47 -0.278052 0.10183 0.0974797 0.0973377 8.50625e-05 0.097392 1.71266e-06 273.075 
-0.41 -0.45 -0.174388 0.378222 0.0973974 0.097385 1.33625e-05 0.0974813 1.71467e-06 273.005 
-0.45 -0.43 -0.351731 0.469925 0.0975306 0.0973452 2.06156e-05 0.0974653 1.71335e-06 273.171 
-0.49 -0.41 0.0133265 0.148648 0.0974193 0.0973114 2.71189e-05 0.097373 1.71446e-06 272.735 
-0.35 -0.47 -0.42919 0.0889814 0.0974988 0.0973365 0.000120162 0.0974333 1.7129e-06 273.153 
-0.39 -0.45 -0.33691 0.146399 0.0972418 0.0972035 6.24483e-05 0.0972508 1.7103e-06 273.056 
-0.43 -0.43 -0.490918 0.169532 0.0975586 0.0973928 -1.20887e-05 0.0975032 1.71403e-06 273.168 
-0.47 -0.41 -0.0778904 0.225397 0.0973891 0.0973692 -4.8099e-05 0.097359 1.71315e-06 272.905 
-0.37 -0.45 -0.441438 0.062606 0.0973486 0.0974145 4.91481e-05 0.0974023 1.71258e-06 273.117 
-0.41 -0.43 -0.404545 0.156481 0.0973989 0.0973159 6.83413e-05 0.0974317 1.71347e-06 273.057 
-0.45 -0.41 -0.118947 0.370762 0.0974051 0.09734 -2.60076e-05 0.0974055 1.71299e-06 273.06 
-0.49 -0.39 -0.105959 0.293808 0.0974316 0.0974017 -2.69581e-05 0.0974508 1.71279e-06 273.219 
-0.35 -0.45 -0.429593 0.187609 0.0973172 0.0972438 9.7295e-05 0.0973052 1.71136e-06 273.039 
-0.39 -0.43 -0.209505 0.173176 0.0974137 0.0972987 9.0478e-05 0.097368 1.71212e-06 273.094 
-0.43 -0.41 -0.0360172 0.305665 0.0974105 0.0973159 6.64535e-05 0.0973977 1.71129e-06 273.311 
-0.47 -0.39 -0.214258 0.12736 0.0974365 0.097355 -2.20609e-05 0.0974099 1.71276e-06 273.11 
-0.33 -0.45 -0.549666 0.190025 0.0973846 0.0972915 0.000111183 0.0973733 1.71377e-06 272.846 
-0.37 -0.43 -0.523802 0.304699 0.0974845 0.0973922 8.0866e-05 0.0974343 1.71326e-06 273.098 
-0.41 -0.41 -0.394185 0.228855 0.0974384 0.0973068 6.78742e-05 0.0974647 1.71444e-06 272.996 
-0.45 -0.39 -0.0700138 0.444519 0.097492 0.0973177 -6.47754e-05 0.0973892 1.71282e-06 273.042 
-0.35 -0.43 -0.547339 0.247411 0.0973873 0.0972983 8.50969e-05 0.0973589 1.71156e-06 273.158 
-0.39 -0.41 -0.5338 0.345419 0.0974927 0.0973521 6.22688e-06 0.0974429 1.71418e-06 272.976 
-0.43 -0.39 -0.229214 0.477334 0.0975428 0.0972691 -9.125e-06 0.0974152 1.71372e-06 272.971 
-0.37 -0.41 -0.59582 0.472456 0.0974971 0.0972388 4.41951e-05 0.0973656 1.71144e-06 273.196 
-0.41 -0.39 -0.366154 0.481828 0.0976322 0.0973462 3.89728e-05 0.0974771 1.71388e-06 273.12 
-0.35 -0.41 -0.684463 0.182337 0.0975644 0.0973388 8.00461e-05 0.0974771 1.71356e-06 273.17 
-0.39 -0.39 -0.580567 0.325422 0.0976187 0.0974655 3.31559e-05 0.0975624 1.71414e-06 273.316 
-0.33 -0.41 -0.686149 0.363555 0.0975771 0.0972827 7.26257e-05 0.0974163 1.71245e-06 273.177 
-0.37 -0.39 -0.380779 0.402624 0.0975117 0.0971362 -1.86119e-05 0.0974403 1.71208e-06 273.304 
-0.35 -0.39 -0.445338 0.361954 0.0975403 0.0972948 3.60515e-05 0.0974711 1.71218e-06 273.374 
-0.33 -0.39 -0.717844 0.570433 0.0976947 0.0972553 8.20572e-05 0.0974626 1.71318e-06 273.19 
-0.37 -0.37 -0.734329 0.296747 0.0977139 0.0972089 6.08312e-05 0.0974159 1.71425e-06 272.889 
-0.49 -0.37 0.00260328 0.267394 0.0975862 0.0974332 -6.77521e-05 0.0975275 1.71547e-06 273.008 
-0.47 -0.37 -0.0484909 0.454651 0.097633 0.0974041 -6.0293e-05 0.0975638 1.71532e-06 273.132 
-0.45 -0.37 -0.333692 0.301545 0.0975811 0.0972135 -2.00109e-05 0.0973773 1.71356e-06 272.891 
-0.49 -0.35 -0.12661 0.433436 0.0975944 0.0974248 -8.96246e-05 0.0975223 1.71463e-06 273.127 
-0.43 -0.37 -0.27364 0.598555 0.097584 0.0972435 -5.42771e-05 0.0974463 1.71487e-06 272.876 
-0.47 -0.35 -0.190757 0.354047 0.0975662 0.0973266 -2.70741e-05 0.0974472 1.71461e-06 272.919 
-0.45 -0.35 -0.124217 0.539419 0.0976678 0.0972513 -1.92186e-05 0.0974432 1.71316e-06 273.14 
-0.49 -0.33 -0.0455798 0.55975 0.0975162 0.0973056 -9.53781e-05 0.0974906 1.71495e-06 272.986 
-0.39 -0.37 -0.484599 0.484295 0.0976586 0.097469 2.19328e-05 0.0976055 1.71547e-06 273.225 
-0.43 -0.35 -0.370091 0.624389 0.0976761 0.0971992 -5.12782e-05 0.0974511 1.71317e-06 273.16 
-0.47 -0.33 0.0337559 0.26608 0.0975359 0.0973145 -6.96836e-05 0.0974611 1.71403e-06 273.05 
-0.41 -0.35 -0.383117 0.645171 0.0976535 0.0973224 -1.50315e-05 0.0975481 1.71621e-06 272.947 
-0.45 -0.33 -0.0874177 0.67458 0.0975156 0.097278 -9.63454e-05 0.0974122 1.71279e-06 273.112 
-0.49 -0.31 0.0610635 0.611884 0.0974273 0.0973296 -0.000132326 0.0974151 1.71371e-06 272.973 
-0.39 -0.35 -0.503394 0.701695 0.0976152 0.097341 -2.32001e-05 0.0975438 1.71531e-06 273.078 
-0.43 -0.33 -0.151204 0.777795 0.0975373 0.0971077 -7.53592e-05 0.0973852 1.71371e-06 272.889 
-0.47 -0.31 -0.158449 0.290932 0.0974768 0.0972895 -7.38718e-05 0.0974349 1.71332e-06 273.09 
-0.37 -0.35 -0.537998 0.427822 0.0976025 0.0972578 9.20357e-05 0.0974546 1.71397e-06 273.042 
-0.41 -0.33 -0.304843 0.752001 0.0976314 0.0973391 -4.11757e-05 0.0974642 1.71348e-06 273.147 
-0.45 -0.31 -0.0914355 0.680206 0.097505 0.0972663 -6.19462e-05 0.0975043 1.71328e-06 273.292 
-0.49 -0.29 0.0245226 0.575881 0.0975265 0.097279 -0.000102203 0.0974388 1.71344e-06 273.082 
-0.35 -0.35 -0.792761 0.648694 0.0975638 0.0972214 8.80626e-06 0.0974167 1.71408e-06 272.919 
-0.39 -0.33 -0.34099 0.720891 0.097683 0.0972207 -2.41738e-05 0.0974867 1.71383e-06 273.154 
-0.43 -0.31 -0.125541 0.822789 0.097547 0.0972515 -0.000118649 0.0974426 1.71275e-06 273.202 
-0.47 -0.29 -0.0829133 0.586351 0.0975312 0.0972322 -0.000165031 0.0974142 1.7118e-06 273.275 
-0.37 -0.33 -0.563059 0.743077 0.0977303 0.0972897 3.73637e-05 0.0975676 1.71518e-06 273.166 
-0.41 -0.31 -0.174937 0.909259 0.0975612 0.0972562 -0.000162162 0.097417 1.71306e-06 273.082 
-0.45 -0.29 -0.353622 0.688452 0.0976135 0.0972835 -9.41192e-05 0.0975486 1.71366e-06 273.354 
-0.49 -0.27 0.0296311 0.625392 0.0975632 0.0973768 -0.000109344 0.0974924 1.71399e-06 273.145 
-0.35 -0.33 -0.957039 0.886348 0.0977292 0.0972439 0.000151329 0.0975305 1.71411e-06 273.232 
-0.39 -0.31 -0.459244 0.822501 0.0976049 0.0971761 -8.36118e-06 0.0974294 1.71334e-06 273.072 
-0.43 -0.29 -0.379452 0.759844 0.0976743 0.0972494 -0.000132281 0.0975282 1.71272e-06 273.447 
-0.47 -0.27 -0.0976937 0.62908 0.0975726 0.0972389 -0.000168617 0.0974183 1.71364e-06 272.992 
-0.33 -0.33 -1.2138 0.820639 0.0976697 0.097179 9.52076e-05 0.0974867 1.71533e-06 272.915 
-0.37 -0.31 -0.768621 1.1773 0.097506 0.0971401 3.46208e-05 0.0973646 1.71346e-06 272.871 
-0.41 -0.29 -0.552239 1.16976 0.0976113 0.0972604 -6.91764e-05 0.0974526 1.71379e-06 273.065 
-0.45 -0.27 -0.121716 0.941759 0.0975736 0.0972501 -0.000134651 0.0974063 1.71159e-06 273.287 
-0.35 -0.31 -0.907061 1.10459 0.0975234 0.0972688 0.000111261 0.0974399 1.7125e-06 273.235 
-0.39 -0.29 -0.680702 1.03036 0.0974406 0.097004 -7.17557e-05 0.0972436 1.71131e-06 272.874 
-0.43 -0.27 -0.569065 1.04208 0.0975087 0.0971678 -0.000109556 0.0973987 1.71327e-06 272.996 
-0.37 -0.29 -0.791914 1.35364 0.097476 0.097107 7.81983e-05 0.0973244 1.7119e-06 273.008 
-0.41 -0.27 -0.63396 1.22769 0.0975365 0.0972261 -7.99213e-05 0.0973967 1.71457e-06 272.785 
-0.35 -0.29 -1.03306 1.15057 0.0976003 0.0972615 2.8302e-05 0.097447 1.71341e-06 273.11 
-0.39 -0.27 -0.725073 1.20139 0.0975621 0.0969624 1.04372e-05 0.0972866 1.71152e-06 272.961 
-0.33 -0.29 -1.01842 1.31291 0.0976185 0.0971137 9.1785e-05 0.0973313 1.71174e-06 273.052 
-0.37 -0.27 -0.89726 1.43728 0.0976837 0.0971138 -0.000104873 0.0974176 1.71393e-06 272.944 
-0.35 -0.27 -1.08512 1.34506 0.0977617 0.0970813 -1.71224e-05 0.097469 1.7154e-06 272.856 
-0.41 -0.37 -0.31633 0.613956 0.0975913 0.0973177 1.51026e-05 0.0974665 1.71455e-06 272.983 
-0.35 -0.37 -0.685316 0.56324 0.0976657 0.0972334 -1.04101e-05 0.0974319 1.71388e-06 272.993 
-0.45 -0.25 -0.453331 1.09762 0.0976587 0.0971209 -0.000169567 0.0974169 1.71314e-06 273.068 
-0.37 -0.25 -0.900661 1.55222 0.0976606 0.097078 -4.44681e-05 0.0973656 1.71349e-06 272.869 
-0.35 -0.25 -0.961523 1.50703 0.0976214 0.0970299 -6.65271e-06 0.0973268 1.71371e-06 272.725 
-0.33 -0.49 -0.364573 0.0234318 0.0973843 0.0972259 0.000119307 0.0973624 1.71268e-06 272.989 
-0.31 -0.49 -0.491645 0.0533755 0.097465 0.0972802 0.000114447 0.0973803 1.7126e-06 273.052 
-0.29 -0.49 -0.651734 0.0579738 0.0974896 0.0974111 0.000146236 0.0974761 1.71581e-06 272.81 
-0.33 -0.47 -0.439448 0.149834 0.097548 0.0972638 0.000129014 0.097448 1.71488e-06 272.879 
-0.27 -0.49 -0.554808 0.0204784 0.0974626 0.0973379 0.000210132 0.0973981 1.71387e-06 272.9 
-0.31 -0.47 -0.484503 0.136451 0.0974845 0.0972699 0.000103841 0.0973958 1.71271e-06 273.078 
-0.29 -0.47 -0.668041 0.152754 0.0974744 0.0973539 0.000192648 0.0973895 1.71348e-06 272.938 
-0.27 -0.47 -0.787899 -0.0204038 0.0974792 0.0972281 0.0001486 0.0973674 1.71237e-06 273.052 
-0.31 -0.45 -0.660499 0.325613 0.0974694 0.0973544 0.000115308 0.0974532 1.71355e-06 273.105 
-0.29 -0.45 -0.690383 0.24681 0.0974074 0.0973361 0.00012291 0.097366 1.71336e-06 272.891 
-0.33 -0.43 -0.613839 0.259206 0.0974071 0.097226 8.9982e-05 0.0973679 1.71189e-06 273.131 
-0.27 -0.45 -0.874971 -0.0309475 0.0974423 0.0972349 0.000151534 0.0972761 1.71116e-06 272.99 
-0.31 -0.43 -0.600879 0.348526 0.0974121 0.0972729 0.000115611 0.0973423 1.71229e-06 272.995 
-0.29 -0.43 -0.769603 0.42345 0.0974477 0.0973163 0.000172777 0.0974007 1.71143e-06 273.296 
-0.27 -0.43 -0.794719 0.080196 0.0974496 0.0971902 0.000133768 0.0972858 1.71013e-06 273.181 
-0.31 -0.41 -0.790637 0.429996 0.0975157 0.0971696 9.73008e-05 0.0973176 1.7116e-06 273.036 
-0.29 -0.41 -0.80402 0.474008 0.0976223 0.0973085 6.82436e-05 0.0974411 1.71201e-06 273.316 
-0.27 -0.41 -0.912449 0.156327 0.0976309 0.0972114 0.000154748 0.0973745 1.71123e-06 273.255 
-0.31 -0.39 -0.907019 0.45295 0.0978095 0.0972574 4.60061e-05 0.097511 1.71479e-06 273.07 
-0.29 -0.39 -0.847727 0.538823 0.0976576 0.0972367 0.000151739 0.0974497 1.71348e-06 273.106 
-0.33 -0.37 -0.667555 0.708708 0.0975769 0.0972121 1.1015e-05 0.0974041 1.71224e-06 273.177 
-0.27 -0.39 -1.07739 0.440207 0.0975946 0.0972238 0.000190191 0.097427 1.71357e-06 273.029 
-0.31 -0.37 -0.834255 0.550584 0.0974772 0.0971561 0.000110892 0.0973295 1.71207e-06 272.994 
-0.29 -0.37 -0.94351 0.549478 0.0974931 0.0971706 0.000174997 0.0973598 1.71283e-06 272.957 
-0.33 -0.35 -0.884723 0.786645 0.0976293 0.0972074 9.97093e-05 0.0974707 1.71401e-06 273.08 
-0.27 -0.37 -1.21771 0.699212 0.0976191 0.0972337 0.000116249 0.0974586 1.71373e-06 273.091 
-0.31 -0.35 -1.06388 0.780093 0.0976497 0.0971457 0.000119822 0.0974251 1.71535e-06 272.739 
-0.29 -0.35 -1.46584 0.761123 0.097654 0.0972212 0.000108959 0.097418 1.71423e-06 272.899 
-0.27 -0.35 -1.49557 1.04251 0.097644 0.0972232 8.70292e-05 0.0974098 1.71468e-06 272.804 
-0.31 -0.33 -1.14838 1.02686 0.0976286 0.097055 9.52933e-05 0.0974025 1.71421e-06 272.857 
-0.29 -0.33 -1.23746 0.914427 0.0976868 0.0971665 7.67572e-05 0.0974523 1.71423e-06 272.994 
-0.33 -0.31 -1.12894 0.980931 0.097626 0.0971518 0.000101302 0.0973845 1.71373e-06 272.884 
-0.27 -0.33 -1.53005 1.17577 0.097716 0.097258 0.000115633 0.0975213 1.71609e-06 272.892 
-0.31 -0.31 -1.25373 0.967499 0.0976028 0.0971129 0.000101969 0.0974311 1.71414e-06 272.95 
-0.29 -0.31 -1.42236 1.24384 0.0976391 0.0971996 9.49133e-05 0.0974733 1.71445e-06 273.018 
-0.27 -0.31 -1.50688 1.24335 0.097635 0.0971699 0.000114368 0.0974322 1.71304e-06 273.127 
-0.31 -0.29 -1.31635 1.11228 0.0976484 0.0971474 7.62036e-05 0.09735 1.71158e-06 273.129 
-0.29 -0.29 -1.41058 1.35273 0.0976993 0.0971125 5.47435e-05 0.0973846 1.712e-06 273.16 
-0.27 -0.29 -1.62035 1.31722 0.0977659 0.0972034 0.000122572 0.097457 1.71347e-06 273.129 
-0.31 -0.27 -1.20299 1.33507 0.0977955 0.0971621 1.49985e-05 0.09747 1.71282e-06 273.269 
-0.25 -0.29 -1.88898 1.27755 0.0976721 0.097215 0.000210509 0.0974587 1.71413e-06 273.028 
-0.29 -0.27 -1.48423 1.58091 0.0977303 0.0971236 4.94985e-05 0.0973935 1.71114e-06 273.322 
-0.27 -0.27 -1.7902 1.53718 0.0976542 0.097033 0.000156308 0.097337 1.71178e-06 273.061 
-0.25 -0.27 -2.06657 1.66204 0.0977602 0.0972167 0.000197844 0.0974445 1.71398e-06 273.013 
-0.33 -0.27 -1.22261 1.32659 0.0978077 0.0971601 2.45332e-05 0.0974419 1.7132e-06 273.13 
-0.25 -0.49 -0.544711 -0.136096 0.0974338 0.0973892 0.000205512 0.0974552 1.71375e-06 273.079 
-0.25 -0.47 -0.81065 0.0188211 0.0975838 0.0974437 0.000259572 0.0974824 1.71404e-06 273.109 
-0.25 -0.45 -0.895389 0.224948 0.0974476 0.0973457 0.000163629 0.0973443 1.71156e-06 273.117 
-0.25 -0.37 -1.44837 0.594196 0.0975462 0.0973051 0.000144238 0.097443 1.71288e-06 273.183 
-0.25 -0.35 -1.68023 0.659657 0.0977073 0.0972892 0.000140558 0.0974715 1.71515e-06 272.901 
-0.25 -0.33 -1.65568 0.927007 0.0976627 0.0971702 0.000113803 0.0974629 1.71489e-06 272.919 
-0.25 -0.25 -2.20822 1.82005 0.0976857 0.0972239 9.84878e-05 0.0974919 1.7144e-06 273.078 
-0.49 -0.25 -0.141002 0.677008 0.0976793 0.0973631 -0.000147937 0.0975477 1.71398e-06 273.301 
-0.47 -0.25 -0.187554 0.755593 0.0976589 0.0972475 -0.000207111 0.0975065 1.71504e-06 273.017 
-0.49 -0.23 -0.0348595 0.646192 0.0974709 0.0972821 -0.000179269 0.0974141 1.71344e-06 273.014 
-0.47 -0.23 -0.0498805 1.07779 0.0975241 0.0972592 -0.000159143 0.0973604 1.7136e-06 272.837 
-0.45 -0.23 -0.228025 1.24705 0.0975366 0.0970573 -0.000179211 0.097331 1.71373e-06 272.733 
-0.49 -0.21 -0.0625451 0.872665 0.0976871 0.0973267 -0.000182598 0.0975636 1.7147e-06 273.231 
-0.43 -0.23 -0.454295 1.23726 0.0975673 0.0971713 -0.00011197 0.0973738 1.71373e-06 272.854 
-0.47 -0.21 -0.221233 0.944996 0.097572 0.0972508 -0.000171046 0.097434 1.7139e-06 272.996 
-0.41 -0.23 -0.723168 1.47153 0.0976245 0.0971626 -2.9904e-05 0.0974181 1.71397e-06 272.939 
-0.45 -0.21 -0.204224 1.42719 0.0975737 0.0970604 -0.000185087 0.0973658 1.71385e-06 272.812 
-0.49 -0.19 -0.0412805 1.01456 0.0975795 0.0972364 -0.000220315 0.0974456 1.71519e-06 272.823 
-0.39 -0.23 -0.784356 1.51818 0.0976301 0.0971113 -9.43873e-05 0.0974093 1.71459e-06 272.817 
-0.43 -0.21 -0.491475 1.52224 0.0976217 0.0970698 -0.000168886 0.0973655 1.71388e-06 272.806 
-0.47 -0.19 -0.34474 1.23364 0.0976508 0.0973016 -0.000147384 0.0975073 1.71545e-06 272.954 
-0.41 -0.21 -0.699501 1.6368 0.0976147 0.097083 -0.000130821 0.0973741 1.71275e-06 273.011 
-0.45 -0.19 -0.63014 1.52115 0.097618 0.0971007 -0.000170508 0.0973856 1.71257e-06 273.072 
-0.49 -0.17 -0.204632 1.13895 0.0976142 0.097155 -0.000197867 0.0974191 1.71303e-06 273.093 
-0.39 -0.21 -0.857143 1.53287 0.0976789 0.097035 -4.16993e-05 0.0973757 1.71124e-06 273.256 
-0.43 -0.19 -0.592229 1.56951 0.0976386 0.0970226 -0.000192167 0.0973758 1.71201e-06 273.133 
-0.47 -0.17 -0.241786 1.39768 0.097596 0.0972447 -0.000181317 0.0974306 1.71391e-06 272.984 
-0.41 -0.19 -0.574996 1.74847 0.0977123 0.0970149 -0.0001619 0.0973766 1.71253e-06 273.053 
-0.45 -0.17 -0.261436 1.63865 0.0977213 0.0971438 -0.000237534 0.0974561 1.71337e-06 273.141 
-0.49 -0.15 -0.0349999 1.30834 0.0973902 0.0971626 -0.000257731 0.0972593 1.71283e-06 272.677 
-0.39 -0.19 -0.947032 1.96592 0.0977969 0.0970509 -6.56422e-05 0.0974369 1.71358e-06 273.054 
-0.43 -0.17 -0.295627 1.62796 0.0977374 0.0970435 -0.000147657 0.0974312 1.71335e-06 273.075 
-0.47 -0.15 -0.279078 1.52843 0.0975797 0.0972847 -0.000314014 0.0974467 1.7136e-06 273.079 
-0.41 -0.17 -0.597377 1.9994 0.0976649 0.0969488 -0.000154359 0.09734 1.71171e-06 273.081 
-0.45 -0.15 -0.343036 1.55571 0.0975365 0.0970955 -0.000251995 0.0973249 1.71261e-06 272.895 
-0.39 -0.17 -0.763063 2.29392 0.0975825 0.0969465 -7.02545e-05 0.0973343 1.71204e-06 273.012 
-0.43 -0.15 -0.404043 1.90153 0.0975492 0.0968872 -0.000154528 0.0972292 1.71081e-06 272.913 
-0.41 -0.15 -0.702788 2.17298 0.0975622 0.0969596 -9.81097e-05 0.0972314 1.71117e-06 272.863 
-0.39 -0.15 -0.930745 2.54315 0.0976795 0.0968795 -0.000124027 0.0973178 1.71191e-06 272.987 
-0.43 -0.25 -0.406032 1.16829 0.0976659 0.0972049 -6.20976e-05 0.0975234 1.71462e-06 273.131 
-0.41 -0.25 -0.534913 1.31057 0.0976488 0.0971365 -6.9552e-05 0.0974481 1.71433e-06 272.966 
-0.39 -0.25 -0.706582 1.43873 0.097683 0.0970717 -9.76706e-05 0.0973792 1.71315e-06 272.961 
-0.37 -0.23 -0.781066 1.72683 0.0975063 0.0969697 -1.04357e-05 0.0973113 1.713e-06 272.794 
-0.35 -0.23 -1.16507 1.72092 0.0976361 0.0971394 -8.45174e-05 0.0974119 1.71429e-06 272.871 
-0.33 -0.23 -1.40291 1.62785 0.0975555 0.0970092 -3.95094e-06 0.0972694 1.71148e-06 272.919 
-0.37 -0.21 -1.09143 2.02296 0.0977806 0.0970372 -5.59425e-05 0.0974494 1.71308e-06 273.169 
-0.35 -0.21 -1.17838 2.00103 0.0976979 0.097153 -9.37422e-05 0.0974502 1.71402e-06 273.022 
-0.33 -0.21 -1.52156 1.96455 0.0976857 0.0969321 1.796e-05 0.0973429 1.71208e-06 273.03 
-0.37 -0.19 -1.27977 2.0507 0.0977679 0.097108 -7.25176e-05 0.0975291 1.71471e-06 273.133 
-0.35 -0.19 -1.39763 2.16744 0.0976853 0.0970031 3.16884e-05 0.0973372 1.71304e-06 272.861 
-0.33 -0.19 -1.52753 2.18299 0.0976171 0.0969054 5.99281e-05 0.0973309 1.71022e-06 273.293 
-0.37 -0.17 -1.11809 2.46054 0.0975426 0.0970277 -5.30316e-06 0.0973896 1.71226e-06 273.132 
-0.35 -0.17 -1.61024 2.27204 0.0975806 0.0969577 3.08432e-05 0.0972767 1.70945e-06 273.263 
-0.33 -0.17 -1.71813 2.30816 0.0976531 0.0969397 2.78624e-05 0.0973229 1.71087e-06 273.168 
-0.37 -0.15 -1.04438 2.79011 0.0977176 0.0969628 -3.66483e-05 0.0973423 1.71148e-06 273.125 
-0.35 -0.15 -1.27005 2.59296 0.0976629 0.0969882 3.58481e-05 0.0973454 1.71161e-06 273.111 
-0.33 -0.15 -1.63032 2.51211 0.0976278 0.0969272 5.123e-05 0.0971985 1.70964e-06 273.014 
-0.35 -0.13 -1.41459 2.91588 0.0976461 0.0968694 4.02628e-05 0.0972841 1.71052e-06 273.114 
-0.33 -0.13 -1.74198 2.79691 0.0976742 0.0969211 9.77264e-05 0.0973295 1.71114e-06 273.142 
-0.33 -0.09 -1.76831 3.42601 0.0974754 0.096705 6.60968e-05 0.0970923 1.7091e-06 272.801 
-0.37 -0.13 -1.39282 2.88982 0.0976407 0.0968874 -8.41653e-05 0.0972177 1.70985e-06 273.034 
-0.37 -0.11 -1.44447 2.97592 0.0974559 0.096679 -9.14513e-05 0.0970906 1.70808e-06 272.961 
-0.35 -0.11 -1.62201 3.03194 0.097536 0.0968362 -5.09432e-06 0.0972388 1.70934e-06 273.174 
-0.33 -0.11 -1.74025 3.23421 0.0975159 0.0968045 0.000102117 0.0972246 1.71126e-06 272.828 
-0.35 -0.09 -1.58234 3.12812 0.0974157 0.0966786 1.5031e-05 0.0970623 1.70778e-06 272.928 
-0.49 -0.13 0.0758087 1.46207 0.0974304 0.0971414 -0.000376129 0.097263 1.71134e-06 272.924 
-0.47 -0.13 -0.020252 1.67609 0.0975073 0.0971807 -0.000299223 0.0973288 1.71163e-06 273.062 
-0.45 -0.13 -0.214044 1.6132 0.097522 0.0970154 -0.000207497 0.097276 1.71147e-06 272.94 
-0.49 -0.11 0.0672255 1.3085 0.0974706 0.0971199 -0.000356004 0.0973095 1.71243e-06 272.88 
-0.43 -0.13 -0.622637 2.20182 0.0975445 0.0968819 -0.000225361 0.0972073 1.70953e-06 273.057 
-0.47 -0.11 -0.0355618 1.89438 0.097518 0.0971295 -0.000334412 0.0973869 1.71213e-06 273.146 
-0.41 -0.13 -0.938905 2.52597 0.0975685 0.0969179 -0.000216334 0.0971854 1.70937e-06 273.02 
-0.45 -0.11 -0.47198 2.15782 0.0974512 0.0969488 -0.000237809 0.0971665 1.70898e-06 273.03 
-0.49 -0.09 -0.159839 1.47564 0.0974831 0.0971537 -0.000389778 0.0973037 1.71202e-06 272.93 
-0.39 -0.13 -1.22263 2.65564 0.0976092 0.0968933 -0.000127661 0.0972648 1.71184e-06 272.849 
-0.43 -0.11 -0.80337 2.41949 0.0974389 0.0968361 -0.000257864 0.0972192 1.70865e-06 273.23 
-0.47 -0.09 -0.366835 2.03932 0.0974567 0.0970182 -0.000383084 0.0972655 1.71128e-06 272.94 
-0.41 -0.11 -0.933333 2.75425 0.0974518 0.096894 -0.000216893 0.0972274 1.70922e-06 273.162 
-0.45 -0.09 -0.327485 2.3728 0.0974683 0.096883 -0.00021605 0.0972187 1.71015e-06 272.989 
-0.39 -0.11 -1.1652 2.96497 0.0974781 0.0968319 -0.000138965 0.0971942 1.7093e-06 273.056 
-0.43 -0.09 -0.591153 2.66075 0.0975059 0.0969367 -0.000263016 0.0972142 1.70913e-06 273.14 
-0.41 -0.09 -0.90892 3.05458 0.0974216 0.0967735 -0.000206972 0.0970878 1.70826e-06 272.923 
-0.39 -0.09 -1.05405 2.97966 0.097463 0.0968053 -0.000159868 0.0971291 1.71006e-06 272.753 
-0.37 -0.09 -1.25325 3.3835 0.097438 0.0966715 -0.000110398 0.0970524 1.70759e-06 272.93 
-0.35 -0.03 -1.96106 3.97675 0.0974663 0.0965284 -6.38979e-05 0.0970142 1.70675e-06 272.958 
-0.37 -0.07 -1.35896 3.49388 0.0974282 0.0965915 -6.36272e-05 0.0970539 1.70827e-06 272.827 
-0.41 -0.05 -0.966894 3.3721 0.0974583 0.0967249 -0.000227888 0.0971084 1.70745e-06 273.11 
-0.45 -0.03 -0.288474 3.14997 0.0973751 0.0966902 -0.000354469 0.0970356 1.70765e-06 272.874 
-0.35 -0.07 -1.55193 3.39205 0.0975532 0.0965751 -5.87463e-05 0.0970541 1.70796e-06 272.877 
-0.39 -0.05 -1.07064 3.56626 0.0974219 0.0966528 -0.000138692 0.0970951 1.70868e-06 272.877 
-0.43 -0.03 -0.530402 3.32682 0.0974402 0.0967972 -0.000229167 0.0971201 1.70855e-06 272.968 
-0.33 -0.07 -1.77837 3.57988 0.0975983 0.0967249 4.67693e-05 0.0971173 1.71001e-06 272.727 
-0.37 -0.05 -1.51577 3.68988 0.0974148 0.096548 -0.000104937 0.0969884 1.70817e-06 272.659 
-0.41 -0.03 -1.11275 3.48141 0.0975216 0.0966982 -0.000158931 0.0971208 1.70764e-06 273.115 
-0.35 -0.05 -1.81412 3.80245 0.097432 0.0965271 -4.07344e-05 0.0969574 1.7078e-06 272.631 
-0.39 -0.03 -1.49299 3.85568 0.0974106 0.0966005 -0.000120754 0.0970021 1.70755e-06 272.797 
-0.33 -0.05 -2.17498 3.87715 0.0974997 0.0966024 3.394e-05 0.0970542 1.70859e-06 272.776 
-0.37 -0.03 -1.66126 4.1579 0.0974753 0.0964845 -0.000104933 0.0969929 1.70725e-06 272.818 
-0.33 -0.03 -2.15635 4.04897 0.0974231 0.0965411 7.49913e-07 0.0970072 1.70733e-06 272.846 
-0.33 -0.01 -2.15745 4.15399 0.0974092 0.096471 -4.14875e-05 0.0969524 1.70553e-06 272.979 
-0.49 -0.07 -0.0674781 1.66733 0.0974394 0.097065 -0.000383199 0.0972121 1.71027e-06 272.951 
-0.47 -0.07 -0.297828 2.1934 0.0974428 0.0968958 -0.000289261 0.0971414 1.70915e-06 272.933 
-0.45 -0.07 -0.55211 2.50921 0.0974382 0.0968605 -0.000276251 0.0971248 1.70973e-06 272.793 
-0.49 -0.05 -0.106649 1.9702 0.0973702 0.0968611 -0.000474228 0.0970519 1.70745e-06 272.952 
-0.43 -0.07 -0.646335 2.89192 0.0975026 0.0968934 -0.000276933 0.0972071 1.70956e-06 273.05 
-0.47 -0.05 -0.214669 2.33208 0.0974856 0.0969709 -0.000371328 0.0971881 1.71086e-06 272.791 
-0.41 -0.07 -0.842954 3.26068 0.0975455 0.0967179 -0.0001808 0.0971264 1.70978e-06 272.79 
-0.45 -0.05 -0.67567 2.79091 0.0974867 0.0967778 -0.000287902 0.0971393 1.71019e-06 272.761 
-0.49 -0.03 -0.0567961 1.96168 0.0973733 0.0968874 -0.0004511 0.0971312 1.70945e-06 272.855 
-0.39 -0.07 -1.18793 3.34053 0.0975252 0.0967623 -0.000191773 0.0971403 1.70853e-06 273.029 
-0.43 -0.05 -1.00023 3.01192 0.0974724 0.0968987 -0.000237513 0.0972096 1.70958e-06 273.055 
-0.47 -0.03 -0.107403 2.67139 0.0973368 0.0968599 -0.000369341 0.0970521 1.70862e-06 272.766 
-0.27 -0.07 -2.77283 3.70575 0.0975978 0.0967957 0.000196155 0.0971961 1.70893e-06 273.12 
-0.31 -0.05 -2.41679 3.82678 0.0975555 0.0967219 4.0519e-05 0.0971057 1.70849e-06 272.937 
-0.27 -0.09 -2.46134 3.43735 0.0976359 0.0968855 5.56918e-05 0.0972825 1.70911e-06 273.335 
-0.31 -0.07 -1.91747 3.67307 0.0975476 0.0966848 5.60801e-05 0.0971217 1.70967e-06 272.793 
-0.29 -0.07 -2.3523 3.68599 0.0976359 0.0968945 0.000144904 0.0972609 1.70876e-06 273.33 
-0.25 -0.07 -2.90942 3.56491 0.0975177 0.0969355 0.00016651 0.0972439 1.70952e-06 273.162 
-0.29 -0.05 -2.59651 4.0042 0.0975364 0.096751 7.8422e-05 0.0970975 1.70723e-06 273.116 
-0.27 -0.05 -2.63082 4.03257 0.0975468 0.0967596 0.000161113 0.0971449 1.70871e-06 273.013 
-0.31 -0.03 -2.45524 4.12851 0.0974095 0.0967662 3.15429e-05 0.0970865 1.70958e-06 272.708 
-0.25 -0.05 -2.8234 3.66954 0.0974929 0.096817 0.00027051 0.097176 1.70997e-06 272.897 
-0.29 -0.03 -2.63003 4.19924 0.0975026 0.0966852 3.5613e-05 0.0970573 1.70907e-06 272.708 
-0.27 -0.03 -2.94174 4.09187 0.097491 0.0966344 0.000197903 0.0971232 1.70861e-06 272.967 
-0.31 -0.01 -2.45672 4.65545 0.0974705 0.0967832 -1.29963e-05 0.0971494 1.70978e-06 272.855 
-0.25 -0.03 -2.97325 3.87803 0.0975533 0.096864 0.000221836 0.0972259 1.71115e-06 272.849 
-0.29 -0.01 -2.829 4.36897 0.0973883 0.0965493 0.000107618 0.0970005 1.70656e-06 272.949 
-0.27 -0.01 -2.93662 4.23728 0.0973219 0.0965894 0.000119144 0.0970523 1.70829e-06 272.819 
-0.33 -0.25 -1.14147 1.36514 0.0977084 0.0971442 -4.46437e-05 0.097414 1.71379e-06 272.956 
-0.31 -0.25 -1.45038 1.72466 0.0976873 0.0971251 2.37698e-05 0.0973825 1.71262e-06 273.055 
-0.29 -0.25 -1.75614 1.82934 0.0976757 0.0970025 0.000166583 0.0973802 1.71249e-06 273.069 
-0.27 -0.25 -2.08948 1.89828 0.0976521 0.0970139 0.000172806 0.0973646 1.7134e-06 272.881 
-0.29 -0.11 -2.25569 3.19001 0.0975911 0.0967664 0.000107256 0.0971922 1.71037e-06 272.88 
-0.27 -0.11 -2.50709 3.22229 0.0976041 0.0969698 0.000184374 0.0972786 1.70994e-06 273.192 
-0.31 -0.09 -2.09524 3.3016 0.0975855 0.0968375 0.000120817 0.0972439 1.71006e-06 273.074 
-0.29 -0.09 -2.22727 3.47326 0.0975875 0.0968195 9.38116e-05 0.0972407 1.70953e-06 273.151 
-0.31 -0.23 -1.72575 1.9873 0.0974692 0.0971058 7.12895e-05 0.0973342 1.7121e-06 273.002 
-0.29 -0.23 -1.97283 2.108 0.0975608 0.0969321 4.25194e-05 0.0973257 1.71237e-06 272.936 
-0.27 -0.23 -1.97135 2.02088 0.0976573 0.0970589 0.000121833 0.0974013 1.7124e-06 273.143 
-0.31 -0.21 -1.79815 2.18418 0.097791 0.0971178 7.93396e-05 0.0974138 1.71389e-06 272.94 
-0.29 -0.21 -1.81489 2.13261 0.0976637 0.096931 6.73205e-05 0.0973669 1.71368e-06 272.843 
-0.27 -0.21 -1.84146 2.18403 0.097635 0.0970329 4.16294e-05 0.0973853 1.71221e-06 273.129 
-0.31 -0.19 -1.54533 2.30356 0.0976525 0.0970427 8.25747e-06 0.0973372 1.71076e-06 273.225 
-0.25 -0.21 -2.12319 2.04281 0.0976919 0.0971139 0.000143774 0.0973841 1.71146e-06 273.244 
-0.29 -0.19 -1.77065 2.25507 0.09768 0.0969814 3.76855e-05 0.0973533 1.71277e-06 272.949 
-0.27 -0.19 -2.06786 2.31687 0.0975988 0.0969685 0.000107055 0.097323 1.7116e-06 273.051 
-0.31 -0.17 -1.86685 2.39845 0.097641 0.0970056 4.53169e-05 0.0973035 1.71117e-06 273.064 
-0.25 -0.19 -2.153 2.26671 0.0975105 0.0969793 0.000195196 0.0972667 1.71282e-06 272.699 
-0.29 -0.17 -2.03472 2.49642 0.0975588 0.0968605 0.000184178 0.097218 1.70959e-06 273.077 
-0.27 -0.17 -2.32226 2.68601 0.0974824 0.0970182 0.000170126 0.0972755 1.71147e-06 272.938 
-0.31 -0.15 -1.94108 2.61171 0.0975155 0.0968851 6.62283e-05 0.0972487 1.71066e-06 272.992 
-0.25 -0.17 -2.63233 2.30331 0.0974908 0.0969109 0.000169168 0.0971916 1.71137e-06 272.719 
-0.29 -0.15 -2.20448 2.75138 0.0975472 0.0968791 0.000144344 0.0972481 1.71037e-06 273.037 
-0.27 -0.15 -2.35271 2.83802 0.097614 0.0969591 0.000220265 0.0972533 1.71178e-06 272.827 
-0.31 -0.13 -2.00578 2.82144 0.0976149 0.0968453 0.000183758 0.0973047 1.71114e-06 273.073 
-0.25 -0.15 -2.64973 2.52427 0.0974592 0.0968925 0.000172839 0.0971712 1.70881e-06 273.07 
-0.29 -0.13 -2.20274 3.05009 0.0975864 0.0968128 0.000150226 0.0972039 1.71009e-06 272.958 
-0.27 -0.13 -2.47691 2.90348 0.0975654 0.0969251 0.000140803 0.0971692 1.70936e-06 272.977 
-0.31 -0.11 -2.03337 2.95305 0.0975433 0.0968305 0.000161841 0.0971999 1.71002e-06 272.958 
-0.25 -0.13 -2.53737 2.8053 0.0976692 0.0969751 0.000220574 0.0973075 1.71192e-06 272.956 
-0.25 -0.23 -2.04179 1.87073 0.0976836 0.0971779 0.000128879 0.0973693 1.7143e-06 272.751 
-0.25 -0.11 -2.7588 2.99426 0.0976154 0.0969523 0.000123768 0.0972384 1.71053e-06 272.984 
-0.25 -0.09 -2.8215 3.22799 0.0976338 0.0969402 0.000157937 0.097304 1.70922e-06 273.378 
-0.25 -0.01 -3.17626 4.04811 0.0973121 0.0968089 0.000197063 0.0970477 1.70813e-06 272.832 
-0.23 -0.49 -0.503258 0.186395 0.0973515 0.0974804 0.000223174 0.0975035 1.71496e-06 273.021 
-0.21 -0.49 -0.763956 -0.0261701 0.0973834 0.0971563 0.00021696 0.0973473 1.71216e-06 273.03 
-0.19 -0.49 -0.796256 0.0352355 0.0974646 0.097468 0.0002438 0.0974724 1.7135e-06 273.167 
-0.23 -0.47 -1.07737 0.17308 0.0975248 0.097459 0.000274215 0.0974934 1.71645e-06 272.756 
-0.17 -0.49 -0.71042 -0.202078 0.0974899 0.0974105 0.000253518 0.0974704 1.71419e-06 273.051 
-0.21 -0.47 -1.0233 0.132046 0.0974581 0.0972434 0.000235362 0.0974234 1.71241e-06 273.203 
-0.15 -0.49 -0.718631 0.128026 0.0975108 0.0975363 0.000249629 0.0975799 1.7156e-06 273.133 
-0.19 -0.47 -1.18214 -0.0534271 0.0975426 0.0974061 0.000171429 0.0974224 1.71356e-06 273.017 