ITEM: TIMESTEP
1024000
ITEM: NUMBER OF CELLS
2500
ITEM: BOX BOUNDS ss ss pp
-0.5 0.5
-0.5 0.5
-0.5 0.5
ITEM: CELLS xc yc f_U[*] f_V[*] f_Tau[1] f_Tau[2] f_Tau[3] f_Press[*] f_Mrho[*] f_Ttra[*] 
-0.49 -0.49 -0.0083676 0.0187715 0.0973821 0.0974394 -5.59339e-05 0.0973978 1.71278e-06 273.073 
-0.47 -0.49 -0.0876857 0.0446047 0.097428 0.0975084 -5.42106e-05 0.0974923 1.71406e-06 273.133 
-0.45 -0.49 -0.0835539 -0.0343917 0.0974368 0.0973618 -4.97041e-05 0.0974507 1.71432e-06 272.976 
-0.49 -0.47 -0.00594727 0.0343052 0.0974346 0.097447 -6.89253e-05 0.0973745 1.71397e-06 272.818 
-0.43 -0.49 -0.14991 0.0774376 0.0974749 0.0973864 3.1635e-05 0.0974246 1.71374e-06 272.995 
-0.47 -0.47 -0.00207098 0.102391 0.0973952 0.0973751 1.32375e-05 0.0973843 1.71306e-06 272.99 
-0.41 -0.49 -0.176837 -0.0611221 0.097472 0.0973955 7.34291e-05 0.097462 1.71448e-06 272.981 
-0.45 -0.47 -0.171253 0.0848425 0.0973608 0.0973881 -1.39266e-06 0.0973844 1.71365e-06 272.896 
-0.49 -0.45 -0.0245127 0.0431491 0.0974344 0.0974106 -4.2647e-05 0.0973702 1.71223e-06 273.083 
-0.39 -0.49 -0.174497 0.031554 0.0973818 0.0972988 7.59028e-05 0.0974046 1.71387e-06 272.918 
-0.43 -0.47 -0.16388 0.0723683 0.097289 0.0973206 4.93401e-05 0.0973011 1.71182e-06 272.954 
-0.47 -0.45 0.0284883 0.0328894 0.0973539 0.0973668 -1.12725e-05 0.0973217 1.71188e-06 273.002 
-0.37 -0.49 -0.247305 0.0489171 0.0974227 0.0973115 0.000136368 0.097421 1.71333e-06 273.05 
-0.41 -0.47 -0.287076 0.0166595 0.0974024 0.0974012 3.60073e-05 0.0974608 1.71385e-06 273.078 
-0.45 -0.45 -0.0192333 0.323662 0.0974047 0.097319 7.83247e-05 0.0973466 1.7131e-06 272.877 
-0.49 -0.43 -0.0968624 0.103477 0.0974138 0.0972951 4.04376e-05 0.0973659 1.71255e-06 273.02 
-0.35 -0.49 -0.273429 0.0638601 0.0974353 0.0973707 0.000109088 0.0974545 1.71387e-06 273.057 
-0.39 -0.47 -0.34743 0.0593171 0.0975129 0.0973085 9.85199e-05 0.0974612 1.71264e-06 273.273 
-0.43 -0.45 -0.147167 -0.0320368 0.0974476 0.0974277 -2.29283e-05 0.0974729 1.71449e-06 273.01 
-0.47 -0.43 -0.218761 0.126165 0.0975245 0.0974273 -3.79101e-05 0.097493 1.71412e-06 273.126 
-0.37 -0.47 -0.303097 0.0897592 0.0974697 0.0972748 9.11257e-05 0.0973669 1.71242e-06 273.043 
-0.41 -0.45 -0.106433 0.268147 0.0973828 0.0973353 1.87526e-05 0.0974416 1.71363e-06 273.06 
-0.45 -0.43 -0.318149 0.341091 0.0975788 0.09734 4.23301e-05 0.0974875 1.71338e-06 273.228 
-0.49 -0.41 0.0160738 0.218954 0.09749 0.0973601 3.60057e-05 0.0974282 1.7145e-06 272.884 
-0.35 -0.47 -0.42452 0.101142 0.0975013 0.0973574 0.000112115 0.0974465 1.71269e-06 273.224 
-0.39 -0.45 -0.345848 0.187666 0.0972645 0.0972241 5.8397e-05 0.0972716 1.71042e-06 273.095 
-0.43 -0.43 -0.382023 0.136439 0.0975775 0.0973385 3.68459e-05 0.0974775 1.71317e-06 273.234 
-0.47 -0.41 -0.0601968 0.27772 0.09743 0.0974092 -6.32177e-05 0.0973989 1.71397e-06 272.886 
-0.37 -0.45 -0.429782 0.0345473 0.0973568 0.0973436 3.36083e-05 0.0973517 1.71189e-06 273.085 
-0.41 -0.43 -0.399933 0.165162 0.0974685 0.0973129 7.48947e-05 0.0974663 1.71397e-06 273.075 
-0.45 -0.41 0.000422991 0.237029 0.0973983 0.0972987 -2.06089e-05 0.0973811 1.71309e-06 272.976 
-0.49 -0.39 -0.078569 0.382776 0.097416 0.0974306 -4.92873e-05 0.0974466 1.71266e-06 273.228 
-0.35 -0.45 -0.427554 0.185668 0.0973529 0.0972747 8.98388e-05 0.097332 1.71152e-06 273.089 
-0.39 -0.43 -0.170677 0.149227 0.0974372 0.0972983 8.89175e-05 0.0973845 1.71194e-06 273.169 
-0.43 -0.41 7.60297e-06 0.237752 0.097472 0.0973084 4.02041e-05 0.0974267 1.71269e-06 273.168 
-0.47 -0.39 -0.16191 0.115609 0.0974319 0.0973793 -2.71011e-05 0.0974027 1.71244e-06 273.14 
-0.33 -0.45 -0.562733 0.176167 0.0974179 0.0973073 0.000113057 0.0973917 1.71361e-06 272.923 
-0.37 -0.43 -0.469959 0.299605 0.0975157 0.0973408 5.09061e-05 0.097399 1.71235e-06 273.144 
-0.41 -0.41 -0.320776 0.237804 0.0974816 0.0972606 7.48192e-05 0.0974471 1.71404e-06 273.01 
-0.45 -0.39 -0.074843 0.299023 0.097465 0.0972956 -7.14945e-05 0.0973597 1.71266e-06 272.985 
-0.35 -0.43 -0.545209 0.239707 0.097432 0.0973064 6.33966e-05 0.0973601 1.71105e-06 273.243 
-0.39 -0.41 -0.474299 0.217053 0.0975638 0.0973978 2.75435e-05 0.0974957 1.71448e-06 273.075 
-0.43 -0.39 -0.232895 0.450835 0.0975089 0.0972527 -1.20459e-05 0.0973916 1.71353e-06 272.935 
-0.37 -0.41 -0.537587 0.514072 0.0975376 0.0972154 3.55007e-05 0.0973459 1.71112e-06 273.192 
-0.41 -0.39 -0.316836 0.420801 0.0975798 0.0972823 3.8096e-05 0.0974265 1.71307e-06 273.106 
-0.35 -0.41 -0.623341 0.208428 0.0975546 0.0973127 6.81931e-05 0.0974399 1.71208e-06 273.302 
-0.39 -0.39 -0.514486 0.323231 0.0975681 0.097452 3.4263e-05 0.09753 1.71409e-06 273.235 
-0.33 -0.41 -0.64317 0.358649 0.0975492 0.0972803 6.52236e-05 0.0974037 1.71219e-06 273.183 
-0.37 -0.39 -0.374792 0.387145 0.0975031 0.0971324 -8.34041e-06 0.0973882 1.71141e-06 273.264 
-0.35 -0.39 -0.461135 0.37877 0.0975474 0.0972917 4.81712e-05 0.0974557 1.71107e-06 273.508 
-0.33 -0.39 -0.683085 0.525025 0.0976865 0.0972634 7.27207e-05 0.0974607 1.71312e-06 273.194 
-0.37 -0.37 -0.6587 0.358345 0.0976625 0.0972041 5.81234e-05 0.0973838 1.71362e-06 272.899 
-0.49 -0.37 0.02275 0.306638 0.097626 0.0974209 -4.55373e-05 0.0975481 1.71484e-06 273.165 
-0.47 -0.37 -0.00178632 0.432651 0.0976466 0.0974226 -4.02973e-05 0.0975544 1.71496e-06 273.164 
-0.45 -0.37 -0.28516 0.227685 0.0975788 0.0972237 -3.68485e-05 0.0973866 1.7138e-06 272.879 
-0.49 -0.35 -0.0796048 0.412099 0.0975502 0.0973933 -8.26232e-05 0.0975016 1.71434e-06 273.115 
-0.43 -0.37 -0.237567 0.55592 0.0975718 0.0972194 -5.27992e-05 0.0974547 1.71431e-06 272.989 
-0.47 -0.35 -0.0981919 0.317768 0.0975364 0.0973444 3.41574e-06 0.0974518 1.71447e-06 272.954 
-0.45 -0.35 -0.0894622 0.518477 0.0976584 0.0972702 -2.79337e-06 0.0974388 1.71296e-06 273.16 
-0.49 -0.33 -0.0330005 0.489747 0.0974463 0.0972767 -8.0729e-05 0.0974236 1.7141e-06 272.935 
-0.39 -0.37 -0.435727 0.456397 0.0976489 0.0974353 2.64478e-05 0.0975692 1.71462e-06 273.259 
-0.43 -0.35 -0.263829 0.537027 0.09766 0.0971937 -5.26675e-05 0.097447 1.71316e-06 273.15 
-0.47 -0.33 0.0110084 0.279015 0.0975558 0.0973962 -0.000101102 0.0975098 1.71532e-06 272.982 
-0.41 -0.35 -0.310498 0.555427 0.0976119 0.0972772 -2.4203e-05 0.0975082 1.71552e-06 272.945 
-0.45 -0.33 -0.0786063 0.597538 0.0975352 0.0972712 -9.55389e-05 0.0974128 1.71312e-06 273.06 
-0.49 -0.31 0.0150329 0.569793 0.0974386 0.0973374 -0.000171736 0.0974214 1.71433e-06 272.891 
-0.39 -0.35 -0.436843 0.698538 0.0975666 0.0973154 1.30481e-05 0.0975144 1.71467e-06 273.098 
-0.43 -0.33 -0.187163 0.719071 0.0975646 0.0971083 -6.07344e-05 0.0973993 1.71381e-06 272.913 
-0.47 -0.31 -0.14663 0.276511 0.0974907 0.0973478 -0.00011244 0.0974621 1.71452e-06 272.976 
-0.37 -0.35 -0.51714 0.486719 0.0975989 0.0972918 8.15842e-05 0.0974653 1.71355e-06 273.138 
-0.41 -0.33 -0.304723 0.664397 0.0976526 0.0972839 -2.7997e-05 0.0974611 1.7133e-06 273.167 
-0.45 -0.31 -0.0750812 0.619488 0.0974974 0.0972327 -6.66214e-05 0.0974528 1.7129e-06 273.208 
-0.49 -0.29 0.0385788 0.516684 0.0976211 0.0973477 -0.000123425 0.0975171 1.71505e-06 273.045 
-0.35 -0.35 -0.787177 0.75062 0.0975589 0.0972233 3.44117e-06 0.0974176 1.71424e-06 272.896 
-0.39 -0.33 -0.298319 0.665247 0.0977036 0.0972418 -2.52869e-05 0.0975072 1.71415e-06 273.161 
-0.43 -0.31 -0.162669 0.71117 0.097552 0.0972454 -0.000114198 0.0974331 1.71341e-06 273.072 
-0.47 -0.29 -0.100942 0.536807 0.0975932 0.0972461 -0.000152826 0.0974594 1.71351e-06 273.128 
-0.37 -0.33 -0.514533 0.826313 0.097728 0.097277 3.70265e-05 0.0975603 1.71481e-06 273.204 
-0.41 -0.31 -0.21646 0.818955 0.0975579 0.0972183 -0.000142756 0.0974285 1.71358e-06 273.032 
-0.45 -0.29 -0.373982 0.665719 0.0976209 0.0972443 -7.54495e-05 0.0975145 1.71383e-06 273.232 
-0.49 -0.27 0.00735768 0.593536 0.0975862 0.0973986 -0.000113469 0.0975178 1.71514e-06 273.033 
-0.35 -0.33 -0.851709 0.982848 0.0977369 0.0972279 0.000131915 0.0975154 1.71423e-06 273.17 
-0.39 -0.31 -0.557854 0.774297 0.0976072 0.0972011 -1.51193e-05 0.0974461 1.71388e-06 273.033 
-0.43 -0.29 -0.358112 0.643697 0.0976683 0.0972583 -0.000154144 0.0975195 1.71323e-06 273.341 
-0.47 -0.27 -0.134846 0.571879 0.0976041 0.0972513 -0.000151662 0.0974404 1.71453e-06 272.913 
-0.33 -0.33 -1.12411 0.926414 0.0976505 0.097145 8.15074e-05 0.0974567 1.71462e-06 272.945 
-0.37 -0.31 -0.797905 1.18841 0.0975054 0.0971488 2.22006e-05 0.0973792 1.71328e-06 272.94 
-0.41 -0.29 -0.511942 1.11376 0.0976299 0.0971902 -6.69211e-05 0.0974409 1.71371e-06 273.045 
-0.45 -0.27 -0.120871 0.851442 0.0975851 0.0972512 -0.000133385 0.0974112 1.71259e-06 273.141 
-0.35 -0.31 -0.91149 1.19798 0.0974973 0.0972469 0.000117933 0.0974055 1.71227e-06 273.175 
-0.39 -0.29 -0.618149 1.04112 0.0975021 0.0970685 -5.86604e-05 0.0973138 1.71252e-06 272.878 
-0.43 -0.27 -0.540189 0.962668 0.0975272 0.0971719 -9.00293e-05 0.097387 1.71307e-06 272.997 
-0.37 -0.29 -0.85391 1.37015 0.0975056 0.0971105 6.37985e-05 0.0973421 1.71266e-06 272.935 
-0.41 -0.27 -0.654304 1.17604 0.0975219 0.0971618 -8.80165e-05 0.0973538 1.71423e-06 272.719 
-0.35 -0.29 -1.01687 1.19583 0.0976309 0.0972446 2.06975e-05 0.0974379 1.71391e-06 273.005 
-0.39 -0.27 -0.819398 1.22643 0.0975731 0.0970085 2.13709e-05 0.0972913 1.71213e-06 272.878 
-0.33 -0.29 -0.997925 1.34812 0.0976709 0.0971383 7.91893e-05 0.0973799 1.7131e-06 272.971 
-0.37 -0.27 -0.950278 1.50111 0.0976916 0.0971208 -8.416e-05 0.0974031 1.71322e-06 273.017 
-0.35 -0.27 -1.17352 1.36964 0.0977475 0.0971064 -2.18257e-05 0.097439 1.71464e-06 272.892 
-0.41 -0.37 -0.272155 0.511765 0.0975797 0.0972883 -9.44297e-06 0.0974707 1.7145e-06 273.003 
-0.35 -0.37 -0.677553 0.598967 0.0976454 0.0972415 -1.78689e-05 0.0974126 1.71323e-06 273.042 
-0.45 -0.25 -0.4655 1.03498 0.0976405 0.0971399 -0.000141376 0.0974154 1.71352e-06 273.004 
-0.37 -0.25 -0.915117 1.57688 0.0976414 0.097071 -6.21458e-05 0.0973346 1.71343e-06 272.792 
-0.35 -0.25 -0.981996 1.52556 0.0976404 0.0970484 1.60868e-05 0.0973435 1.71394e-06 272.736 
-0.33 -0.49 -0.372656 0.00909129 0.0974296 0.0972804 0.000111583 0.0974179 1.71296e-06 273.1 
-0.31 -0.49 -0.422684 0.0314607 0.0974649 0.0972983 0.000143248 0.097401 1.71228e-06 273.161 
-0.29 -0.49 -0.596784 0.0540248 0.0974862 0.0973911 0.000136103 0.0974778 1.71564e-06 272.841 
-0.33 -0.47 -0.461611 0.111239 0.0975793 0.0972603 0.000135499 0.0974648 1.71481e-06 272.936 
-0.27 -0.49 -0.540853 0.040517 0.0974838 0.0973736 0.000208263 0.0974347 1.71398e-06 272.984 
-0.31 -0.47 -0.543673 0.126262 0.0975509 0.0973262 0.000122736 0.097444 1.71261e-06 273.229 
-0.29 -0.47 -0.68823 0.154507 0.0975121 0.0973581 0.000193995 0.0974112 1.71354e-06 272.989 
-0.27 -0.47 -0.7541 0.0505532 0.0975122 0.0972618 0.000133682 0.0973944 1.71195e-06 273.195 
-0.31 -0.45 -0.749872 0.340777 0.0974924 0.0973695 0.000124062 0.0974577 1.71383e-06 273.073 
-0.29 -0.45 -0.764398 0.219192 0.0974742 0.0973489 0.000135879 0.0974198 1.71409e-06 272.926 
-0.33 -0.43 -0.567159 0.308762 0.0974333 0.0972122 8.31459e-05 0.0973627 1.71177e-06 273.135 
-0.27 -0.45 -0.931345 0.00323553 0.0975027 0.0972808 0.000169641 0.0973311 1.71133e-06 273.116 
-0.31 -0.43 -0.602701 0.351069 0.0974364 0.0973016 0.000108494 0.0973792 1.71292e-06 272.998 
-0.29 -0.43 -0.766973 0.375335 0.0974538 0.0973045 0.00017238 0.0973991 1.7117e-06 273.248 
-0.27 -0.43 -0.816643 0.108638 0.0974584 0.0972308 0.000133249 0.0973235 1.71052e-06 273.224 
-0.31 -0.41 -0.794188 0.472512 0.0975302 0.0972074 9.09833e-05 0.0973523 1.71212e-06 273.05 
-0.29 -0.41 -0.841003 0.436742 0.0976075 0.0972952 8.00688e-05 0.0974356 1.71273e-06 273.186 
-0.27 -0.41 -1.00257 0.200506 0.0976127 0.0972548 0.000149061 0.097403 1.71182e-06 273.241 
-0.31 -0.39 -0.82596 0.524818 0.0977653 0.0972424 6.48365e-05 0.097514 1.71506e-06 273.034 
-0.29 -0.39 -0.839127 0.501843 0.0976353 0.0972444 0.000159932 0.0974612 1.71377e-06 273.092 
-0.33 -0.37 -0.788873 0.718449 0.0975543 0.097217 4.33509e-05 0.0973826 1.71261e-06 273.058 
-0.27 -0.39 -1.04954 0.53548 0.0975794 0.0972534 0.000163594 0.0974253 1.71279e-06 273.148 
-0.31 -0.37 -0.920843 0.588095 0.0974378 0.0971401 0.000114648 0.0972911 1.71232e-06 272.846 
-0.29 -0.37 -1.0116 0.56301 0.097503 0.0972006 0.000163434 0.0973699 1.71276e-06 272.997 
-0.33 -0.35 -0.906163 0.80908 0.0976118 0.0971795 0.000102673 0.0974371 1.71356e-06 273.059 
-0.27 -0.37 -1.27713 0.72624 0.0976121 0.0972696 0.000137709 0.0974576 1.71362e-06 273.107 
-0.31 -0.35 -1.09619 0.78992 0.0976782 0.097167 0.00010691 0.0974531 1.71576e-06 272.754 
-0.29 -0.35 -1.44858 0.752459 0.0976495 0.0972083 0.000101678 0.0974497 1.71476e-06 272.903 
-0.27 -0.35 -1.34699 0.972569 0.0976582 0.097267 0.000100847 0.0974414 1.71471e-06 272.887 
-0.31 -0.33 -1.12544 0.98199 0.0976223 0.0971004 0.000102056 0.0974104 1.71455e-06 272.826 
-0.29 -0.33 -1.15924 0.856673 0.0976863 0.0971489 7.91328e-05 0.0974574 1.714e-06 273.045 
-0.33 -0.31 -1.09968 1.09726 0.0976103 0.0971747 9.73042e-05 0.0973961 1.71407e-06 272.862 
-0.27 -0.33 -1.52379 1.13989 0.0977108 0.097275 0.000116081 0.0975078 1.7153e-06 272.98 
-0.31 -0.31 -1.19963 0.968886 0.0976045 0.0971216 6.58863e-05 0.0974242 1.71439e-06 272.889 
-0.29 -0.31 -1.48222 1.2056 0.097651 0.0971802 9.4569e-05 0.0974634 1.71427e-06 273.018 
-0.27 -0.31 -1.54569 1.17288 0.0976302 0.0971824 0.000114424 0.0974512 1.71331e-06 273.137 
-0.31 -0.29 -1.27334 1.16984 0.0976796 0.097135 6.25948e-05 0.0973836 1.71217e-06 273.131 
-0.29 -0.29 -1.38926 1.39504 0.0977059 0.0970876 5.71905e-05 0.0973801 1.71199e-06 273.149 
-0.27 -0.29 -1.66513 1.22231 0.0977873 0.0971966 0.000151056 0.097454 1.71362e-06 273.096 
-0.31 -0.27 -1.2861 1.33836 0.097781 0.0971542 5.66459e-05 0.0974817 1.71348e-06 273.197 
-0.25 -0.29 -1.89333 1.26787 0.0977082 0.0972327 0.0001896 0.0974829 1.71457e-06 273.026 
-0.29 -0.27 -1.52128 1.63416 0.0977158 0.0971047 4.75272e-05 0.0974122 1.71201e-06 273.235 
-0.27 -0.27 -1.79353 1.46602 0.0976923 0.0970451 0.00012454 0.0973568 1.7122e-06 273.05 
-0.25 -0.27 -2.06391 1.57702 0.0977862 0.0972182 0.000206376 0.0974372 1.71436e-06 272.93 
-0.33 -0.27 -1.26221 1.33767 0.0977878 0.0971669 3.19213e-05 0.0974395 1.71324e-06 273.116 
-0.25 -0.49 -0.533506 -0.0920199 0.0974427 0.0973903 0.000202201 0.0974471 1.71315e-06 273.151 
-0.25 -0.47 -0.769788 0.0239013 0.0975959 0.0974371 0.000253678 0.0974824 1.71381e-06 273.145 
-0.25 -0.45 -0.962099 0.204671 0.0975185 0.0973537 0.000163325 0.0973813 1.7115e-06 273.231 
-0.25 -0.37 -1.41274 0.558126 0.0975352 0.0972982 0.000152557 0.0974407 1.71284e-06 273.183 
-0.25 -0.35 -1.601 0.645796 0.0977241 0.0972803 0.000150772 0.0974739 1.71459e-06 272.998 
-0.25 -0.33 -1.64979 0.908179 0.0976646 0.0971548 0.000139054 0.097446 1.71406e-06 273.003 
-0.25 -0.25 -2.20493 1.71923 0.0976542 0.097176 0.000104919 0.0974394 1.7141e-06 272.979 
-0.49 -0.25 -0.132469 0.648902 0.0976548 0.0973991 -0.000152431 0.0975427 1.71463e-06 273.184 
-0.47 -0.25 -0.164008 0.712957 0.0976505 0.0972417 -0.000169492 0.0974893 1.71516e-06 272.95 
-0.49 -0.23 -0.01395 0.629967 0.0974875 0.0973387 -0.000201061 0.0974604 1.71421e-06 273.02 
-0.47 -0.23 -0.0407901 1.01618 0.0975357 0.0972337 -0.000170049 0.0973716 1.71384e-06 272.831 
-0.45 -0.23 -0.196285 1.15871 0.0975578 0.0970621 -0.000143383 0.097359 1.71354e-06 272.843 
-0.49 -0.21 -0.029821 0.835312 0.0976484 0.0973268 -0.000187768 0.0975565 1.71445e-06 273.252 
-0.43 -0.23 -0.482013 1.25087 0.0975797 0.0971969 -9.77805e-05 0.0974084 1.71434e-06 272.854 
-0.47 -0.21 -0.208128 0.889299 0.097552 0.0972027 -0.000169128 0.0974212 1.71387e-06 272.964 
-0.41 -0.23 -0.807168 1.4373 0.0976067 0.0971152 -3.2589e-05 0.0973973 1.71383e-06 272.904 
-0.45 -0.21 -0.244555 1.36939 0.0975817 0.0970682 -0.000170255 0.0973707 1.71394e-06 272.811 
-0.49 -0.19 -0.0549755 0.919835 0.0975716 0.097255 -0.000222688 0.0974773 1.7155e-06 272.863 
-0.39 -0.23 -0.845365 1.55864 0.0975965 0.097119 -8.14154e-05 0.097413 1.71465e-06 272.817 
-0.43 -0.21 -0.533834 1.59109 0.0976577 0.0971239 -0.000145182 0.097388 1.71467e-06 272.744 
-0.47 -0.19 -0.331131 1.20197 0.0976244 0.0972255 -0.000164251 0.0974327 1.71395e-06 272.984 
-0.41 -0.21 -0.741236 1.65999 0.0976325 0.0970439 -0.000116749 0.0973542 1.71235e-06 273.019 
-0.45 -0.19 -0.650357 1.5163 0.0976233 0.0971043 -0.000173864 0.0973878 1.71287e-06 273.03 
-0.49 -0.17 -0.193776 1.06696 0.0975854 0.0971979 -0.000157468 0.0974136 1.71308e-06 273.069 
-0.39 -0.21 -0.869833 1.55263 0.0977119 0.0970591 -4.48043e-05 0.0974312 1.71222e-06 273.255 
-0.43 -0.19 -0.595994 1.59824 0.097606 0.0970202 -0.000169724 0.0973497 1.71256e-06 272.973 
-0.47 -0.17 -0.229669 1.35776 0.0975608 0.0972268 -0.00019431 0.0974124 1.71329e-06 273.032 
-0.41 -0.19 -0.554216 1.7592 0.0977017 0.0970031 -0.000138904 0.0973637 1.71251e-06 273.02 
-0.45 -0.17 -0.22508 1.64327 0.0976346 0.0970977 -0.000222159 0.0974023 1.7127e-06 273.098 
-0.49 -0.15 -0.045751 1.26114 0.0973387 0.0971493 -0.000279126 0.0972358 1.71181e-06 272.773 
-0.39 -0.19 -0.835709 1.94278 0.0977721 0.0970544 -9.1355e-05 0.0974293 1.713e-06 273.126 
-0.43 -0.17 -0.295932 1.62802 0.097707 0.0970634 -0.000152547 0.0974381 1.71376e-06 273.029 
-0.47 -0.15 -0.229155 1.46355 0.0975572 0.0972696 -0.000298838 0.0974302 1.71257e-06 273.196 
-0.41 -0.17 -0.60421 1.96672 0.0976495 0.0969598 -0.000138918 0.0973328 1.71187e-06 273.035 
-0.45 -0.15 -0.367753 1.60115 0.0975091 0.0970529 -0.000250883 0.0972924 1.7118e-06 272.933 
-0.39 -0.17 -0.819411 2.25027 0.097575 0.0969691 -4.6945e-05 0.0973374 1.71186e-06 273.05 
-0.43 -0.15 -0.419651 1.90251 0.0975381 0.096926 -0.000173484 0.097254 1.71078e-06 272.988 
-0.41 -0.15 -0.705593 2.15439 0.0975251 0.0969411 -0.000104525 0.097227 1.7105e-06 272.957 
-0.39 -0.15 -0.926369 2.49645 0.0976349 0.096903 -0.000110193 0.0973088 1.7114e-06 273.042 
-0.43 -0.25 -0.444358 1.08283 0.0976462 0.0971914 -7.724e-05 0.0974685 1.71415e-06 273.052 
-0.41 -0.25 -0.581462 1.28526 0.0976675 0.097113 -8.40367e-05 0.0974303 1.714e-06 272.969 
-0.39 -0.25 -0.776605 1.48705 0.0976494 0.0970794 -0.000113915 0.097381 1.71368e-06 272.882 
-0.37 -0.23 -0.80454 1.70747 0.0974897 0.0969753 -2.8782e-05 0.0973453 1.71327e-06 272.848 
-0.35 -0.23 -1.12146 1.72712 0.097586 0.0971031 -9.5853e-05 0.0974002 1.71371e-06 272.931 
-0.33 -0.23 -1.33127 1.66622 0.0975596 0.0970418 -1.23378e-05 0.0973164 1.71211e-06 272.952 
-0.37 -0.21 -1.1001 1.9187 0.0977799 0.0970629 -5.99439e-05 0.0974686 1.71369e-06 273.126 
-0.35 -0.21 -1.24812 1.97318 0.0977073 0.0971014 -8.17836e-05 0.0974406 1.71404e-06 272.991 
-0.33 -0.21 -1.58532 2.03515 0.0976809 0.0969315 2.69529e-05 0.0973528 1.71238e-06 273.01 
-0.37 -0.19 -1.2388 2.08766 0.0977392 0.0971407 -4.58901e-05 0.0975009 1.71407e-06 273.156 
-0.35 -0.19 -1.39366 2.18171 0.0976822 0.096968 1.79693e-05 0.0973369 1.71344e-06 272.797 
-0.33 -0.19 -1.5371 2.19594 0.0976326 0.0968575 6.69934e-05 0.0973306 1.71152e-06 273.085 
-0.37 -0.17 -1.12369 2.49563 0.0975445 0.0970658 -1.16474e-05 0.0973972 1.71186e-06 273.218 
-0.35 -0.17 -1.53331 2.31991 0.097529 0.0969377 2.00681e-05 0.0972541 1.71044e-06 273.042 
-0.33 -0.17 -1.69331 2.34012 0.0976009 0.0968847 3.31855e-06 0.0972754 1.71064e-06 273.07 
-0.37 -0.15 -1.07104 2.80005 0.0976803 0.0969648 -1.22061e-05 0.097338 1.71173e-06 273.072 
-0.35 -0.15 -1.26067 2.59302 0.097652 0.0969724 4.08939e-05 0.0973182 1.71102e-06 273.129 
-0.33 -0.15 -1.55717 2.55927 0.0976024 0.0968977 2.13102e-05 0.0972017 1.70972e-06 273.01 
-0.35 -0.13 -1.48831 2.87341 0.0976531 0.0968855 4.26771e-05 0.0972934 1.71067e-06 273.116 
-0.33 -0.13 -1.81215 2.84329 0.0976746 0.0969099 9.31436e-05 0.097325 1.71136e-06 273.096 
-0.33 -0.09 -1.76309 3.43183 0.097524 0.096723 4.38614e-05 0.0971167 1.70971e-06 272.773 
-0.37 -0.13 -1.36 2.88517 0.097641 0.0969039 -6.9542e-05 0.0972246 1.7099e-06 273.046 
-0.37 -0.11 -1.45153 2.98024 0.0974854 0.0967443 -7.63843e-05 0.0971437 1.7091e-06 272.947 
-0.35 -0.11 -1.57182 3.06526 0.0975377 0.0968749 -1.9066e-05 0.0972593 1.70985e-06 273.151 
-0.33 -0.11 -1.82603 3.23172 0.0975129 0.0967904 8.39659e-05 0.097193 1.7106e-06 272.846 
-0.35 -0.09 -1.63789 3.23258 0.097494 0.0967344 2.5989e-05 0.0971419 1.70891e-06 272.972 
-0.49 -0.13 0.0581355 1.39597 0.0975005 0.0971505 -0.000387643 0.0973082 1.71205e-06 272.938 
-0.47 -0.13 -0.109094 1.63582 0.0975333 0.0971534 -0.000277602 0.0973297 1.71178e-06 273.041 
-0.45 -0.13 -0.236831 1.6825 0.0975552 0.0970219 -0.000224883 0.0972817 1.71101e-06 273.029 
-0.49 -0.11 0.0421807 1.28907 0.0974194 0.097076 -0.000350521 0.0972756 1.71256e-06 272.765 
-0.43 -0.13 -0.632884 2.16494 0.0975604 0.0968786 -0.000221411 0.0972097 1.70912e-06 273.128 
-0.47 -0.11 -0.0612801 1.89452 0.097497 0.0971031 -0.000345945 0.0973521 1.71193e-06 273.08 
-0.41 -0.13 -0.93296 2.47654 0.0975978 0.0969074 -0.000196448 0.0972087 1.70963e-06 273.044 
-0.45 -0.11 -0.558979 2.12948 0.0974589 0.0969675 -0.000256249 0.0972033 1.70957e-06 273.039 
-0.49 -0.09 -0.151399 1.44651 0.0974287 0.0970753 -0.000361053 0.0972447 1.71171e-06 272.814 
-0.39 -0.13 -1.19 2.70927 0.0976452 0.0969049 -0.000126599 0.0972987 1.71276e-06 272.798 
-0.43 -0.11 -0.829288 2.38646 0.0974636 0.0968113 -0.000270445 0.0972222 1.70904e-06 273.177 
-0.47 -0.09 -0.430265 2.13762 0.097421 0.0970316 -0.000390599 0.0972673 1.71127e-06 272.947 
-0.41 -0.11 -0.970723 2.73762 0.0974856 0.096882 -0.000202624 0.0972361 1.70976e-06 273.101 
-0.45 -0.09 -0.38591 2.28473 0.0974937 0.0969187 -0.000233945 0.0972459 1.71055e-06 273.003 
-0.39 -0.11 -1.1918 2.97281 0.0974755 0.0967977 -0.000108138 0.0971823 1.71004e-06 272.905 
-0.43 -0.09 -0.62651 2.62729 0.0974904 0.0968952 -0.000262989 0.0972021 1.7092e-06 273.094 
-0.41 -0.09 -0.947879 3.02107 0.097419 0.096745 -0.000190475 0.0971037 1.7084e-06 272.947 
-0.39 -0.09 -1.13224 3.06322 0.0975191 0.0968108 -0.000159276 0.097156 1.71006e-06 272.827 
-0.37 -0.09 -1.28506 3.31203 0.0975244 0.0967295 -0.000101412 0.0971275 1.70907e-06 272.905 
-0.35 -0.03 -1.98381 3.96862 0.0974298 0.0965582 -7.06971e-05 0.0970532 1.70775e-06 272.908 
-0.37 -0.07 -1.35664 3.44965 0.0974202 0.0966537 -6.39584e-05 0.0970836 1.70891e-06 272.808 
-0.41 -0.05 -0.981821 3.36871 0.0974039 0.0967083 -0.00022727 0.097082 1.70666e-06 273.162 
-0.45 -0.03 -0.281981 3.13658 0.0973608 0.0966933 -0.000339512 0.0970047 1.70691e-06 272.906 
-0.35 -0.07 -1.59786 3.50089 0.0975309 0.0966492 -5.97915e-05 0.0970984 1.70851e-06 272.914 
-0.39 -0.05 -1.13508 3.57855 0.0973771 0.0965833 -0.000147926 0.0970522 1.70771e-06 272.911 
-0.43 -0.03 -0.6302 3.3195 0.0974288 0.0967721 -0.000230454 0.097092 1.70795e-06 272.985 
-0.33 -0.07 -1.86003 3.63237 0.0975637 0.096745 4.64826e-05 0.0971329 1.71017e-06 272.746 
-0.37 -0.05 -1.52865 3.69759 0.0973904 0.0966268 -0.000128032 0.0970516 1.70838e-06 272.803 
-0.41 -0.03 -1.12157 3.55574 0.0974759 0.0966577 -0.000205442 0.0970923 1.70689e-06 273.155 
-0.35 -0.05 -1.79437 3.88164 0.0974095 0.0965686 -4.75188e-05 0.0970003 1.70825e-06 272.679 
-0.39 -0.03 -1.47308 3.84143 0.0973863 0.096555 -0.000139001 0.0970036 1.70687e-06 272.909 
-0.33 -0.05 -2.15771 3.93867 0.0974916 0.0966235 4.32897e-05 0.0970949 1.70911e-06 272.808 
-0.37 -0.03 -1.71589 4.16022 0.0974761 0.0965694 -0.000104576 0.0970515 1.70821e-06 272.829 
-0.33 -0.03 -2.07245 4.16066 0.0974037 0.0965224 -1.46018e-05 0.0970064 1.70728e-06 272.852 
-0.33 -0.01 -2.10875 4.24232 0.0974573 0.096491 -3.5907e-05 0.0970199 1.7066e-06 272.997 
-0.49 -0.07 -0.0676988 1.68192 0.0973862 0.0970262 -0.000417163 0.0971675 1.71015e-06 272.845 
-0.47 -0.07 -0.284476 2.23734 0.0974083 0.0969388 -0.000325387 0.0971434 1.70883e-06 272.989 
-0.45 -0.07 -0.54967 2.45397 0.0973897 0.0968406 -0.00032166 0.0971102 1.70942e-06 272.801 
-0.49 -0.05 -0.111763 1.96104 0.097387 0.0968529 -0.000510164 0.0970536 1.70699e-06 273.03 
-0.43 -0.07 -0.704218 2.92459 0.0974691 0.0968404 -0.000271359 0.097172 1.70853e-06 273.116 
-0.47 -0.05 -0.184399 2.35791 0.0974768 0.0969631 -0.000406574 0.0971943 1.70991e-06 272.959 
-0.41 -0.07 -0.877295 3.18464 0.0975174 0.0967243 -0.000209153 0.0971485 1.70944e-06 272.906 
-0.45 -0.05 -0.623997 2.76881 0.0974632 0.0967608 -0.000302318 0.0971154 1.709e-06 272.883 
-0.49 -0.03 -0.0418928 1.92867 0.0974244 0.0969051 -0.000461142 0.0971641 1.70911e-06 273.003 
-0.39 -0.07 -1.16192 3.38768 0.0974879 0.0967278 -0.000180954 0.0971298 1.70827e-06 273.04 
-0.43 -0.05 -0.917999 3.0307 0.0974002 0.0968349 -0.000256297 0.0971355 1.70804e-06 273.093 
-0.47 -0.03 -0.130651 2.69917 0.0973353 0.096842 -0.000372513 0.0970519 1.70798e-06 272.867 
-0.27 -0.07 -2.70151 3.59644 0.0975573 0.0968054 0.000187124 0.0971799 1.70877e-06 273.101 
-0.31 -0.05 -2.3923 3.85854 0.0975203 0.0966936 4.24544e-05 0.0970916 1.70852e-06 272.892 
-0.27 -0.09 -2.53108 3.38727 0.0976552 0.0968968 6.79473e-05 0.0972914 1.70951e-06 273.296 
-0.31 -0.07 -2.0344 3.65944 0.0975208 0.0966664 4.84106e-05 0.0971013 1.70859e-06 272.909 
-0.29 -0.07 -2.37875 3.66439 0.0976441 0.0968562 0.000125258 0.0972475 1.70872e-06 273.299 
-0.25 -0.07 -2.88973 3.54242 0.0975027 0.0968794 0.000159121 0.0972144 1.70926e-06 273.119 
-0.29 -0.05 -2.61337 3.8981 0.0974747 0.0967209 6.8441e-05 0.0970534 1.70604e-06 273.182 
-0.27 -0.05 -2.70208 3.92189 0.0975258 0.0967642 0.000158951 0.0971727 1.70854e-06 273.117 
-0.31 -0.03 -2.41242 4.10786 0.0974573 0.0967537 4.16452e-05 0.0971187 1.70933e-06 272.84 
-0.25 -0.05 -2.89286 3.67716 0.097477 0.0968074 0.000242344 0.0972114 1.71072e-06 272.879 
-0.29 -0.03 -2.56231 4.18219 0.0975365 0.0967021 4.18199e-05 0.0970937 1.70929e-06 272.775 
-0.27 -0.03 -2.91668 3.99036 0.0975042 0.0966233 0.000183778 0.0971173 1.70794e-06 273.057 
-0.31 -0.01 -2.38369 4.62142 0.0974613 0.0967409 4.81881e-06 0.0971239 1.70886e-06 272.929 
-0.25 -0.03 -3.00009 3.88093 0.0975799 0.0968905 0.000211714 0.0972637 1.71152e-06 272.896 
-0.29 -0.01 -2.7855 4.32449 0.0973832 0.0965427 8.30752e-05 0.0969902 1.70596e-06 273.017 
-0.27 -0.01 -2.87486 4.22232 0.0973704 0.0966083 0.00012674 0.0970716 1.70815e-06 272.896 
-0.33 -0.25 -1.19575 1.37425 0.0976871 0.0971384 -8.62222e-06 0.0973997 1.7134e-06 272.978 
-0.31 -0.25 -1.49181 1.73587 0.0976896 0.0971159 2.57776e-05 0.0974056 1.71319e-06 273.028 
-0.29 -0.25 -1.80919 1.86423 0.0976747 0.0970117 0.000153585 0.0974023 1.71303e-06 273.044 
-0.27 -0.25 -2.08033 1.7932 0.0976245 0.0970169 0.000158013 0.0973454 1.71339e-06 272.829 
-0.29 -0.11 -2.25956 3.16647 0.0976045 0.0967691 0.000128279 0.0972168 1.70995e-06 273.016 
-0.27 -0.11 -2.45029 3.19016 0.0976244 0.0969471 0.000192045 0.0972946 1.71023e-06 273.19 
-0.31 -0.09 -2.12421 3.29594 0.0975856 0.0968022 0.000114953 0.0972095 1.70969e-06 273.036 
-0.29 -0.09 -2.26085 3.45213 0.0975852 0.0967819 8.13088e-05 0.0972224 1.70923e-06 273.147 
-0.31 -0.23 -1.7254 2.0157 0.0974765 0.0970726 8.94626e-05 0.0973282 1.71187e-06 273.023 
-0.29 -0.23 -1.92895 2.07914 0.0975495 0.096965 7.73786e-05 0.0973263 1.71289e-06 272.854 
-0.27 -0.23 -1.95813 1.89954 0.0976168 0.0970394 9.74616e-05 0.0973603 1.71286e-06 272.954 
-0.31 -0.21 -1.7846 2.2506 0.0977385 0.0970759 7.89583e-05 0.097403 1.71357e-06 272.96 
-0.29 -0.21 -1.89393 2.14388 0.0976646 0.0969787 4.54509e-05 0.0973617 1.71327e-06 272.893 
-0.27 -0.21 -1.97815 2.09011 0.0976658 0.0970491 5.73777e-05 0.0973787 1.71294e-06 272.994 
-0.31 -0.19 -1.53611 2.34752 0.0977078 0.0970594 3.19435e-05 0.097412 1.71248e-06 273.161 
-0.25 -0.21 -2.14198 1.97398 0.0976598 0.0970943 0.000137221 0.0973618 1.71196e-06 273.102 
-0.29 -0.19 -1.69349 2.31599 0.0976785 0.0970195 5.32359e-05 0.0973973 1.7136e-06 272.941 
-0.27 -0.19 -2.01964 2.23166 0.0975912 0.0969365 0.000105019 0.0972932 1.71207e-06 272.892 
-0.31 -0.17 -1.85112 2.41756 0.09763 0.0969928 5.14437e-05 0.0973152 1.7111e-06 273.108 
-0.25 -0.19 -2.24644 2.16649 0.0975666 0.0970122 0.000186687 0.0973273 1.71366e-06 272.734 
-0.29 -0.17 -1.98533 2.50334 0.0976203 0.0969354 0.000174329 0.0972736 1.71088e-06 273.027 
-0.27 -0.17 -2.25426 2.68425 0.0975492 0.0969845 0.000155407 0.0972855 1.71197e-06 272.886 
-0.31 -0.15 -1.90366 2.69355 0.0974963 0.096865 3.07238e-05 0.097228 1.71085e-06 272.904 
-0.25 -0.17 -2.58797 2.22563 0.0975404 0.0969133 0.000170263 0.0972458 1.7126e-06 272.676 
-0.29 -0.15 -2.31248 2.74511 0.0975311 0.0969094 0.000121544 0.0972595 1.71075e-06 273.009 
-0.27 -0.15 -2.45166 2.83806 0.0976183 0.0969622 0.000184538 0.0972815 1.7118e-06 272.903 
-0.31 -0.13 -2.07114 2.88538 0.0976311 0.0968063 0.000138309 0.0973065 1.7115e-06 273.021 
-0.25 -0.15 -2.68589 2.49761 0.0975109 0.0968678 0.000179738 0.0972011 1.70964e-06 273.022 
-0.29 -0.13 -2.20888 3.10817 0.0975942 0.0968422 0.000121486 0.0972012 1.71049e-06 272.887 
-0.27 -0.13 -2.46889 2.87085 0.0975403 0.0968965 0.000155296 0.0971714 1.70936e-06 272.982 
-0.31 -0.11 -2.05159 3.02549 0.0975719 0.0968241 0.00012292 0.0972208 1.71023e-06 272.982 
-0.25 -0.13 -2.54468 2.75378 0.097593 0.0969267 0.00020072 0.0972661 1.71168e-06 272.879 
-0.25 -0.23 -2.09849 1.84614 0.0976494 0.0971487 9.48348e-05 0.0973522 1.71433e-06 272.698 
-0.25 -0.11 -2.72389 2.95771 0.0976286 0.096921 0.000113566 0.0972435 1.71127e-06 272.88 
-0.25 -0.09 -2.8163 3.20766 0.0976594 0.0969132 0.00015216 0.0973015 1.70969e-06 273.296 
-0.25 -0.01 -3.12931 4.05357 0.0973403 0.0968166 0.000184146 0.0970767 1.7087e-06 272.822 
-0.23 -0.49 -0.507602 0.132723 0.0973681 0.0974771 0.000224174 0.0974893 1.71431e-06 273.085 
-0.21 -0.49 -0.694241 -0.0171721 0.0973835 0.0971987 0.000190906 0.097393 1.71227e-06 273.141 
-0.19 -0.49 -0.712649 0.0454964 0.0974448 0.0974642 0.000209391 0.0974844 1.71368e-06 273.171 
-0.23 -0.47 -1.05905 0.170965 0.097543 0.0974786 0.000241516 0.0975032 1.7154e-06 272.951 
-0.17 -0.49 -0.656017 -0.160578 0.0974975 0.0974304 0.000242395 0.0974862 1.71451e-06 273.044 
-0.21 -0.47 -0.971622 0.0317292 0.0974873 0.0972747 0.000187306 0.0974574 1.7128e-06 273.237 
-0.15 -0.49 -0.657466 0.106697 0.0975334 0.097505 0.000246036 0.0975757 1.71524e-06 273.178 
-0.19 -0.47 -1.07669 -0.0265118 0.0976081 0.0974212 0.000175486 0.0974724 1.71443e-06 273.019 