ITEM: TIMESTEP
809500
ITEM: NUMBER OF CELLS
2500
ITEM: BOX BOUNDS ss ss pp
-0.5 0.5
-0.5 0.5
-0.5 0.5
ITEM: CELLS xc yc f_U[*] f_V[*] f_Tau[1] f_Tau[2] f_Tau[3] f_Press[*] f_Mrho[*] f_Ttra[*] 
-0.49 -0.49 -0.241471 0.0112222 0.0976687 0.097754 1.99737e-05 0.0978584 1.71705e-06 273.681 
-0.47 -0.49 0.331308 -0.497682 0.0976605 0.0975537 -8.22053e-05 0.0976874 1.71882e-06 272.922 
-0.45 -0.49 1.50277 -0.0957743 0.0978442 0.0977176 -2.61512e-07 0.0977288 1.71847e-06 273.093 
-0.49 -0.47 -0.348573 0.154052 0.0970417 0.0974518 2.88068e-05 0.0973533 1.71905e-06 271.953 
-0.43 -0.49 1.27203 0.236999 0.0977749 0.0976228 0.000402139 0.0975416 1.71785e-06 272.668 
-0.47 -0.47 -0.535001 -1.01912 0.0971567 0.097685 6.14576e-05 0.0976301 1.71873e-06 272.776 
-0.41 -0.49 0.610669 0.200849 0.0973095 0.097269 0.000246547 0.0974303 1.71864e-06 272.232 
-0.45 -0.47 -1.22969 -0.0915168 0.0967713 0.0974029 -1.47956e-05 0.0973586 1.71351e-06 272.847 
-0.49 -0.45 -0.264276 0.130559 0.0970155 0.0971501 -0.000346747 0.0970297 1.70756e-06 272.872 
-0.39 -0.49 0.104241 0.0966249 0.097111 0.0970365 -2.57043e-05 0.0972819 1.71806e-06 271.91 
-0.43 -0.47 -1.06415 0.513183 0.0971891 0.097357 6.07689e-05 0.0973439 1.71092e-06 273.218 
-0.47 -0.45 -0.538486 0.0554891 0.097305 0.0978105 -0.000123153 0.0976365 1.71859e-06 272.815 
-0.37 -0.49 -0.479405 0.505686 0.0971132 0.0970724 0.000260711 0.0973104 1.71725e-06 272.118 
-0.41 -0.47 -0.566454 0.788543 0.0974987 0.0974848 0.000127569 0.0973447 1.70937e-06 273.468 
-0.45 -0.45 -1.00033 0.322681 0.097204 0.0972725 0.00018471 0.0974148 1.71151e-06 273.322 
-0.49 -0.43 0.0132429 0.0652031 0.0978353 0.097197 0.000121392 0.097502 1.71477e-06 273.047 
-0.35 -0.49 -1.105 0.425971 0.0971449 0.0970453 0.000157972 0.0973472 1.71826e-06 272.06 
-0.39 -0.47 -0.931827 -0.0434478 0.0975482 0.0974067 0.00030024 0.0976545 1.71776e-06 272.999 
-0.43 -0.45 -1.22734 0.0790498 0.0970968 0.0973849 -0.000253468 0.0977236 1.71589e-06 273.489 
-0.47 -0.43 -0.00124998 0.532004 0.0974203 0.0973762 3.65031e-05 0.0974206 1.71386e-06 272.964 
-0.37 -0.47 -0.637473 0.994184 0.0974367 0.0973677 -0.000148421 0.0976258 1.7127e-06 273.724 
-0.41 -0.45 -1.19735 0.454076 0.0969806 0.0972642 4.06587e-05 0.0973577 1.71168e-06 273.136 
-0.45 -0.43 -0.743936 0.622733 0.0977232 0.0975458 -0.000141911 0.0979049 1.71544e-06 274.069 
-0.49 -0.41 0.0235956 0.627705 0.0971413 0.0968868 3.9748e-05 0.0968321 1.7124e-06 271.547 
-0.35 -0.47 -0.398306 0.168005 0.0976825 0.0971999 8.56228e-05 0.0976812 1.7177e-06 273.083 
-0.39 -0.45 -0.577972 -0.107138 0.0975363 0.0973532 7.17755e-05 0.0974177 1.71242e-06 273.186 
-0.43 -0.43 -0.847524 -0.133299 0.0977426 0.097055 -0.000199239 0.0977044 1.71364e-06 273.795 
-0.47 -0.41 -0.20025 -0.298225 0.0977106 0.0976986 -4.25954e-05 0.0975063 1.71473e-06 273.065 
-0.37 -0.45 -0.484567 0.270499 0.0974793 0.0975204 -2.29409e-05 0.097555 1.71383e-06 273.346 
-0.41 -0.43 -0.893029 0.193483 0.0978707 0.0975305 -5.33841e-05 0.0980266 1.71846e-06 273.927 
-0.45 -0.41 0.64237 0.74559 0.0974008 0.0974766 -0.000139592 0.0975602 1.71421e-06 273.299 
-0.49 -0.39 0.342333 0.696677 0.0980715 0.0973644 -9.5617e-06 0.0974307 1.71887e-06 272.197 
-0.35 -0.45 -0.0119304 0.672913 0.097374 0.0968483 0.000297558 0.0974326 1.71471e-06 272.862 
-0.39 -0.43 -0.725334 -0.116554 0.0976781 0.0975717 -0.000189812 0.0976882 1.71469e-06 273.581 
-0.43 -0.41 0.539977 0.566039 0.0974299 0.0972637 -2.90622e-05 0.0972941 1.71146e-06 272.993 
-0.47 -0.39 0.431793 -0.297649 0.0980065 0.0974489 -0.000229552 0.0975323 1.7213e-06 272.096 
-0.33 -0.45 -0.329543 -0.150681 0.0979656 0.0975969 7.49044e-05 0.097719 1.72137e-06 272.607 
-0.37 -0.43 -1.23443 0.255095 0.0979044 0.0974016 -4.0538e-05 0.0977106 1.71396e-06 273.76 
-0.41 -0.41 -0.0488516 0.0255342 0.0971692 0.0971782 9.10821e-05 0.0974552 1.71852e-06 272.321 
-0.45 -0.39 0.57755 0.485853 0.0981953 0.0977584 -0.000126927 0.0977415 1.72361e-06 272.315 
-0.35 -0.43 -0.995548 0.74899 0.097695 0.0972007 6.49469e-05 0.0975014 1.71258e-06 273.394 
-0.39 -0.41 0.475093 -0.430803 0.0973553 0.0976318 -6.61436e-05 0.0975779 1.72173e-06 272.155 
-0.43 -0.39 0.403059 0.915393 0.09793 0.09724 1.36051e-05 0.0974445 1.7125e-06 273.249 
-0.37 -0.41 0.148331 1.02986 0.0970633 0.097178 -0.000187996 0.0972079 1.71304e-06 272.498 
-0.41 -0.39 0.267244 -0.162912 0.0979038 0.0973227 -0.000174418 0.0975035 1.7172e-06 272.665 
-0.35 -0.41 -0.170625 0.404775 0.0973705 0.0971228 -5.91399e-05 0.0971694 1.70803e-06 273.19 
-0.39 -0.39 -0.265155 0.851515 0.097518 0.0976691 -3.95693e-05 0.0973852 1.71104e-06 273.315 
-0.33 -0.41 -0.30926 0.260833 0.0973712 0.0969967 0.000124914 0.0970587 1.70689e-06 273.061 
-0.37 -0.39 -0.0599678 0.649228 0.097366 0.0972162 -0.000178934 0.0974706 1.71208e-06 273.388 
-0.35 -0.39 0.558205 0.596566 0.0971735 0.0965348 -0.000157581 0.0968843 1.70514e-06 272.849 
-0.33 -0.39 0.117522 -0.154278 0.097513 0.0973604 -5.00239e-05 0.0974577 1.71719e-06 272.539 
-0.37 -0.37 0.0475143 0.30493 0.0977376 0.097315 0.000119624 0.0973063 1.70692e-06 273.753 
-0.49 -0.37 -0.203402 0.658507 0.0976585 0.0973959 4.8537e-05 0.0974728 1.71532e-06 272.879 
-0.47 -0.37 -0.601168 -0.15191 0.0974239 0.0972383 -8.25725e-05 0.0972617 1.71186e-06 272.837 
-0.45 -0.37 -0.742829 0.205289 0.0972102 0.0970846 -6.24297e-05 0.0971659 1.71109e-06 272.692 
-0.49 -0.35 0.167054 0.510319 0.097786 0.0974305 -0.000339698 0.0976449 1.71311e-06 273.713 
-0.43 -0.37 0.123069 0.820049 0.0973241 0.0973871 -4.78257e-05 0.0975325 1.71712e-06 272.759 
-0.47 -0.35 0.384013 0.687127 0.0974844 0.097328 2.11569e-05 0.0974646 1.70535e-06 274.451 
-0.45 -0.35 0.66716 -0.258234 0.097657 0.0972933 -0.000251444 0.0973826 1.70668e-06 274.006 
-0.49 -0.33 -0.343097 0.71141 0.0980524 0.0970646 -0.000168272 0.0976331 1.71928e-06 272.697 
-0.39 -0.37 0.0937057 1.28305 0.0975536 0.0974488 -0.000169413 0.0974582 1.70793e-06 274.017 
-0.43 -0.35 0.603216 0.310099 0.0980364 0.097601 -0.000230068 0.0976929 1.71757e-06 273.136 
-0.47 -0.33 -0.148568 0.0568605 0.0985573 0.0976324 0.00017905 0.0979521 1.72089e-06 273.333 
-0.41 -0.35 0.109708 0.478254 0.0974077 0.0970024 -4.05048e-05 0.097233 1.7051e-06 273.838 
-0.45 -0.33 -0.550883 -0.292071 0.0979951 0.0977043 0.000117079 0.0977845 1.71156e-06 274.352 
-0.49 -0.31 0.154711 0.706495 0.0979721 0.0967254 -0.00013174 0.0972793 1.71e-06 273.183 
-0.39 -0.35 -0.123155 1.47105 0.0972498 0.0973003 -5.52349e-05 0.097344 1.71036e-06 273.308 
-0.43 -0.33 -0.0310902 0.820054 0.0971495 0.0968534 -0.000188247 0.0970226 1.70981e-06 272.493 
-0.47 -0.31 -0.155254 -0.224073 0.0975798 0.0967722 -0.000206174 0.0972149 1.70621e-06 273.61 
-0.37 -0.35 0.248736 -0.39278 0.0973327 0.0966804 6.77298e-05 0.0971143 1.70981e-06 272.751 
-0.41 -0.33 0.127256 0.983758 0.0973492 0.0973232 -8.96915e-05 0.0970583 1.70503e-06 273.357 
-0.45 -0.31 0.118278 -0.107931 0.0981926 0.0978704 0.000300957 0.0979024 1.71148e-06 274.695 
-0.49 -0.29 0.244129 -0.114671 0.0973535 0.0970315 9.96646e-05 0.0972616 1.71714e-06 271.999 
-0.35 -0.35 0.0711982 0.760525 0.0976098 0.0969478 0.000123818 0.0972819 1.71451e-06 272.472 
-0.39 -0.33 -0.218636 1.0555 0.097561 0.0971667 8.23965e-05 0.0974082 1.71461e-06 272.809 
-0.43 -0.31 -0.942974 0.329746 0.0981498 0.0975324 0.000122153 0.0976853 1.71073e-06 274.207 
-0.47 -0.29 0.164224 0.595064 0.0975857 0.0968178 -0.0001024 0.0971271 1.70858e-06 272.982 
-0.37 -0.33 -0.534959 0.412103 0.097331 0.0969054 -0.000212657 0.0969636 1.71146e-06 272.064 
-0.41 -0.31 -0.644983 0.395697 0.0979448 0.097099 -2.75799e-06 0.0974235 1.71295e-06 273.117 
-0.45 -0.29 -0.421599 0.712914 0.0972618 0.0976171 3.26465e-05 0.097533 1.70455e-06 274.772 
-0.49 -0.27 -0.0178251 0.374504 0.0974245 0.097483 -0.000261759 0.0972443 1.70677e-06 273.602 
-0.35 -0.33 -0.934756 0.704241 0.0980081 0.0971702 9.3495e-06 0.097512 1.71212e-06 273.498 
-0.39 -0.31 0.190056 1.45509 0.0977805 0.0970339 0.000191972 0.097332 1.70713e-06 273.791 
-0.43 -0.29 -1.32765 -0.118675 0.0975473 0.0979613 0.000115988 0.0976284 1.71354e-06 273.597 
-0.47 -0.27 -0.00851347 0.360856 0.0974768 0.0968344 -0.000198001 0.0969124 1.703e-06 273.271 
-0.33 -0.33 -0.464077 0.513485 0.0982341 0.0976794 0.000152432 0.0977617 1.71486e-06 273.76 
-0.37 -0.31 -0.574484 1.1842 0.0976097 0.0971743 2.5569e-05 0.0972684 1.70988e-06 273.173 
-0.41 -0.29 -1.34177 1.09324 0.0975396 0.0969649 0.000123241 0.0972792 1.71622e-06 272.193 
-0.45 -0.27 -0.0599387 0.695805 0.0974331 0.0970628 -0.000163798 0.0973822 1.70867e-06 273.685 
-0.35 -0.31 -0.936292 1.42747 0.0974202 0.0973496 -6.63274e-05 0.0972888 1.70896e-06 273.377 
-0.39 -0.29 -2.05892 1.09814 0.0975752 0.0969502 -0.00032106 0.0974277 1.71371e-06 273.007 
-0.43 -0.27 -0.228711 1.33313 0.0973405 0.0973374 6.40617e-05 0.0975619 1.72084e-06 272.251 
-0.37 -0.29 -0.542817 1.08667 0.0976849 0.0971583 -0.000111777 0.097586 1.71554e-06 273.16 
-0.41 -0.27 -1.19271 0.887593 0.0975329 0.0973985 -1.35095e-05 0.097678 1.71286e-06 273.845 
-0.35 -0.29 -0.905405 1.23706 0.0976043 0.0974042 5.69112e-05 0.0976321 1.71425e-06 273.494 
-0.39 -0.27 -0.477743 1.01539 0.0977378 0.0971542 -0.000264156 0.0976443 1.71871e-06 272.819 
-0.33 -0.29 -0.562985 1.66079 0.0976257 0.0968394 -0.000107337 0.0973171 1.71361e-06 272.713 
-0.37 -0.27 -1.08797 1.4094 0.0975671 0.0967967 -0.000148868 0.0975268 1.71518e-06 273.051 
-0.35 -0.27 -2.25577 1.41885 0.0979048 0.0971084 -4.62385e-05 0.0976532 1.71402e-06 273.59 
-0.41 -0.37 0.22609 -0.243317 0.0975061 0.0972314 -0.000155914 0.097413 1.7106e-06 273.464 
-0.35 -0.37 0.521816 0.551642 0.0972346 0.096647 -0.000129972 0.0970346 1.71122e-06 272.303 
-0.45 -0.25 -0.125514 0.275366 0.0974312 0.0969538 -6.41261e-05 0.0974746 1.72104e-06 271.976 
-0.37 -0.25 -0.896251 1.3324 0.0975847 0.0968077 -0.000293367 0.097382 1.71206e-06 273.143 
-0.35 -0.25 -0.545165 1.85357 0.0974358 0.097025 -8.24241e-05 0.0973042 1.71422e-06 272.581 
-0.33 -0.49 -1.25799 -0.589449 0.0971728 0.0972417 -0.000298914 0.0975489 1.71749e-06 272.746 
-0.31 -0.49 -0.907154 0.334891 0.097122 0.0972357 -0.0002039 0.0973849 1.70863e-06 273.7 
-0.29 -0.49 -1.4357 -0.51402 0.0973904 0.0977784 -5.82958e-05 0.0978283 1.71703e-06 273.6 
-0.33 -0.47 -0.66526 -0.779861 0.097418 0.0969926 0.000235478 0.0973484 1.71087e-06 273.239 
-0.27 -0.49 -0.994151 0.39018 0.0975869 0.0981069 0.000467563 0.0976935 1.71964e-06 272.809 
-0.31 -0.47 -0.882552 -0.109907 0.0973418 0.0970742 -0.000115902 0.0974236 1.71369e-06 273 
-0.29 -0.47 -0.377942 -0.693349 0.0974967 0.0974806 -2.80457e-05 0.0976305 1.71496e-06 273.376 
-0.27 -0.47 -0.326623 -0.301569 0.0977749 0.0973804 7.26215e-05 0.0976457 1.71923e-06 272.74 
-0.31 -0.45 -0.321861 -0.77239 0.0981833 0.0973845 -0.000101482 0.097779 1.72116e-06 272.806 
-0.29 -0.45 -0.246325 -0.648463 0.0976135 0.0974133 -9.45945e-05 0.0974049 1.71023e-06 273.499 
-0.33 -0.43 -0.278142 -0.164351 0.0974793 0.097259 -4.58967e-05 0.097381 1.71022e-06 273.434 
-0.27 -0.45 -0.308819 -0.758014 0.097311 0.0974476 0.000195298 0.0972408 1.70759e-06 273.461 
-0.31 -0.43 -0.0690246 -0.620137 0.0975173 0.0974103 1.24948e-05 0.0973406 1.71845e-06 272.012 
-0.29 -0.43 -0.371252 -0.334071 0.0975189 0.0972102 0.000273262 0.0972765 1.70811e-06 273.478 
-0.27 -0.43 -0.277744 -1.03613 0.0974626 0.0970106 0.000347341 0.0970868 1.7086e-06 272.866 
-0.31 -0.41 -0.589702 -0.082157 0.0974517 0.0975575 7.76316e-05 0.0974084 1.7129e-06 273.084 
-0.29 -0.41 -0.9824 -0.831734 0.0972524 0.0973608 0.000292388 0.0969592 1.69991e-06 273.9 
-0.27 -0.41 -1.06345 -0.748396 0.0970869 0.0969833 0.000270877 0.0970417 1.70479e-06 273.349 
-0.31 -0.39 -0.340017 0.357626 0.0973217 0.0971994 0.000187951 0.097032 1.71335e-06 271.957 
-0.29 -0.39 -0.913762 -0.254259 0.0975458 0.0973275 0.000332365 0.0972477 1.71479e-06 272.332 
-0.33 -0.37 -0.0751037 0.435008 0.0968171 0.0972503 -5.08917e-05 0.0971497 1.70861e-06 273.042 
-0.27 -0.39 -1.35966 -0.0116822 0.0978414 0.097412 0.000199884 0.0976234 1.71831e-06 272.825 
-0.31 -0.37 -0.510439 0.295076 0.0970303 0.0974354 -0.00043053 0.0974406 1.71426e-06 272.957 
-0.29 -0.37 -1.09337 0.244006 0.097373 0.0970158 -0.000162205 0.0971728 1.71057e-06 272.794 
-0.33 -0.35 0.0858864 0.71477 0.0978231 0.0973835 -0.000367915 0.0976842 1.71841e-06 272.979 
-0.27 -0.37 -1.98527 0.852269 0.0976209 0.0973604 0.00026176 0.097407 1.71381e-06 272.934 
-0.31 -0.35 -0.312641 1.33365 0.0975451 0.0973219 0.000133797 0.0972995 1.71234e-06 272.867 
-0.29 -0.35 -0.914324 0.687088 0.0970819 0.0965423 -8.89911e-05 0.0968841 1.71164e-06 271.812 
-0.27 -0.35 -0.830403 1.59392 0.0973892 0.0973188 6.21541e-05 0.0972595 1.71211e-06 272.791 
-0.31 -0.33 -0.662833 1.22357 0.0979653 0.096764 -6.37575e-06 0.0971661 1.71248e-06 272.47 
-0.29 -0.33 -1.02598 1.42214 0.097629 0.0967755 0.000124356 0.0972374 1.70402e-06 274.024 
-0.33 -0.31 -1.53575 0.483842 0.0971808 0.096991 0.000126443 0.096877 1.7017e-06 273.381 
-0.27 -0.33 -1.01215 1.82448 0.097458 0.0971097 1.75654e-05 0.0973279 1.70945e-06 273.408 
-0.31 -0.31 -1.66806 0.815604 0.0970188 0.097025 0.00021033 0.0969119 1.70413e-06 273.09 
-0.29 -0.31 -0.949796 1.27916 0.0975124 0.0972432 -7.98668e-05 0.0972048 1.70603e-06 273.61 
-0.27 -0.31 -1.83755 1.6522 0.0979855 0.0969395 0.000100253 0.0974945 1.70951e-06 273.867 
-0.31 -0.29 -0.6962 0.918639 0.0977802 0.0971494 0.00031123 0.0972489 1.71725e-06 271.945 
-0.29 -0.29 -1.31745 0.987968 0.0974791 0.0970818 -4.29782e-05 0.0970286 1.70547e-06 273.203 
-0.27 -0.29 -1.07319 2.32147 0.0973418 0.0970256 8.88422e-05 0.0973381 1.70707e-06 273.818 
-0.31 -0.27 -1.27749 0.979966 0.0973968 0.0970819 -0.000166172 0.0972631 1.7119e-06 272.834 
-0.25 -0.29 -1.99154 0.812823 0.0972922 0.0971564 0.000267931 0.0972806 1.70724e-06 273.628 
-0.29 -0.27 -0.911835 1.64546 0.097544 0.0970518 2.81621e-05 0.0971882 1.70617e-06 273.541 
-0.27 -0.27 -1.45134 2.01175 0.0978354 0.0969976 0.000282325 0.0973679 1.71636e-06 272.419 
-0.25 -0.27 -1.45685 1.43038 0.0979475 0.0971319 0.000153283 0.0973753 1.71161e-06 273.196 
-0.33 -0.27 -2.00276 1.02683 0.0977682 0.0968652 0.000260867 0.0971179 1.70776e-06 273.088 
-0.25 -0.49 -0.587423 -0.485737 0.0973904 0.0975037 0.00051382 0.0975126 1.71246e-06 273.445 
-0.25 -0.47 0.0400923 0.0232447 0.0983607 0.0977678 0.000533381 0.0976905 1.72276e-06 272.307 
-0.25 -0.45 0.00713042 0.0619216 0.0968509 0.0972167 0.000280595 0.0968151 1.70109e-06 273.304 
-0.25 -0.37 -2.02593 -0.0231513 0.0978275 0.0972688 0.000169135 0.0973405 1.7069e-06 273.853 
-0.25 -0.35 -0.993407 -0.312578 0.0977348 0.0974456 -2.91949e-05 0.0972962 1.71659e-06 272.182 
-0.25 -0.33 -1.33821 -0.0527875 0.0976065 0.097602 0.000176845 0.0976184 1.71723e-06 272.982 
-0.25 -0.25 -2.77447 1.44992 0.0974817 0.0971606 0.00018095 0.0974257 1.71645e-06 272.566 
-0.49 -0.25 -0.0436523 -0.378172 0.0976148 0.0973677 4.07179e-05 0.0973756 1.71073e-06 273.336 
-0.47 -0.25 -0.53125 0.450066 0.097107 0.096766 -0.000160987 0.0968945 1.70858e-06 272.329 
-0.49 -0.23 -0.490001 -0.0588323 0.0975088 0.0972871 -0.000176415 0.0972778 1.70923e-06 273.303 
-0.47 -0.23 0.167757 -0.183654 0.0972581 0.0970726 -0.000107944 0.097299 1.71896e-06 271.814 
-0.45 -0.23 -0.154481 0.828994 0.0976483 0.0969491 -0.000496473 0.0974856 1.71737e-06 272.589 
-0.49 -0.21 0.208642 0.364971 0.0974343 0.0969235 -0.000182486 0.0972595 1.71017e-06 273.101 
-0.43 -0.23 -0.454798 1.32772 0.0982311 0.0977059 -3.77214e-05 0.0980103 1.72231e-06 273.269 
-0.47 -0.21 -0.10945 -0.202393 0.097766 0.0978345 -0.000162864 0.0978457 1.7205e-06 273.098 
-0.41 -0.23 -1.31528 1.49861 0.0975839 0.0966794 -7.1564e-05 0.0973657 1.71482e-06 272.658 
-0.45 -0.21 -0.676997 0.262218 0.0977817 0.0970279 -0.00050358 0.0975691 1.71235e-06 273.622 
-0.49 -0.19 -0.00717069 0.263633 0.0973556 0.0969916 -0.000256067 0.0967928 1.70459e-06 272.679 
-0.39 -0.23 -1.14376 1.33911 0.0976282 0.0971012 0.000228124 0.0972701 1.71692e-06 272.057 
-0.43 -0.21 -1.0314 2.5646 0.0973555 0.0969872 1.20898e-05 0.0970985 1.7098e-06 272.707 
-0.47 -0.19 -0.820704 0.269381 0.0976717 0.0978355 -0.000257782 0.097666 1.71797e-06 272.997 
-0.41 -0.21 -1.25924 1.36576 0.097419 0.0965875 0.000243267 0.0968737 1.70642e-06 272.615 
-0.45 -0.19 -1.41836 1.31098 0.0972117 0.0969412 -0.000265403 0.0973178 1.71231e-06 272.923 
-0.49 -0.17 -0.566432 0.696174 0.0978307 0.0970767 -0.000233701 0.0974476 1.71757e-06 272.449 
-0.39 -0.21 -1.14382 1.32287 0.0976273 0.0969384 0.000128866 0.0974991 1.7101e-06 273.785 
-0.43 -0.19 -1.47014 2.11153 0.0974558 0.0969294 -5.94572e-05 0.0974321 1.70818e-06 273.903 
-0.47 -0.17 -0.630849 1.13862 0.0974862 0.0974251 -0.000395972 0.0972739 1.7136e-06 272.595 
-0.41 -0.19 -0.886887 0.590352 0.0977026 0.0965834 -0.000204104 0.097201 1.71227e-06 272.603 
-0.45 -0.17 -0.533915 0.410959 0.0976881 0.0969317 -8.04728e-05 0.0974269 1.71638e-06 272.581 
-0.49 -0.15 0.122749 0.400352 0.0976513 0.0970223 -0.000502891 0.0972511 1.71947e-06 271.6 
-0.39 -0.19 -0.715665 1.7461 0.0977499 0.0968757 -0.000331647 0.0973301 1.71631e-06 272.321 
-0.43 -0.17 -0.286937 1.32224 0.0976963 0.0970694 2.75974e-05 0.0976109 1.71011e-06 274.097 
-0.47 -0.15 0.0564125 1.42193 0.0981491 0.0976793 -0.000340961 0.0978255 1.72393e-06 272.498 
-0.41 -0.17 -0.411419 1.32126 0.0974261 0.0966174 -0.000194322 0.0970907 1.71177e-06 272.372 
-0.45 -0.15 -0.340421 0.765404 0.0977068 0.0968395 -7.00425e-05 0.0973479 1.71507e-06 272.569 
-0.39 -0.17 -1.0606 1.61892 0.0970375 0.0967347 -4.94978e-05 0.0967054 1.70285e-06 272.712 
-0.43 -0.15 -0.570636 1.35263 0.097331 0.0968306 0.000175774 0.0971508 1.71083e-06 272.691 
-0.41 -0.15 -1.0804 1.85052 0.0973499 0.0968232 -1.19725e-05 0.097041 1.70526e-06 273.271 
-0.39 -0.15 -1.2838 2.14435 0.0979407 0.0969941 -0.000130809 0.0973379 1.70889e-06 273.525 
-0.43 -0.25 -0.328958 1.48493 0.0977577 0.0973559 1.86729e-05 0.0979106 1.72158e-06 273.107 
-0.41 -0.25 -0.475641 1.08237 0.0976985 0.0970765 -0.000314245 0.0971342 1.70946e-06 272.862 
-0.39 -0.25 -0.174165 1.29329 0.097856 0.0972216 1.22413e-05 0.0975618 1.71727e-06 272.817 
-0.37 -0.23 -1.18279 2.01772 0.0972783 0.096959 7.58526e-05 0.0973138 1.71742e-06 272.099 
-0.35 -0.23 -1.63322 1.8088 0.097528 0.0970866 3.34281e-05 0.0974187 1.72125e-06 271.787 
-0.33 -0.23 -1.97727 1.16543 0.0977352 0.0969047 -0.000108916 0.0973854 1.71327e-06 272.959 
-0.37 -0.21 -0.53117 2.27713 0.0979997 0.0972958 -9.01222e-05 0.097812 1.71434e-06 273.985 
-0.35 -0.21 -1.14097 2.42456 0.0976385 0.0971432 -0.000308897 0.0973845 1.7143e-06 272.793 
-0.33 -0.21 -0.80599 0.522001 0.0977077 0.0969834 3.27164e-05 0.0971518 1.71363e-06 272.248 
-0.37 -0.19 -1.48223 2.13084 0.0974591 0.0970083 -4.79329e-05 0.0973973 1.70926e-06 273.634 
-0.35 -0.19 -0.882076 2.45407 0.0971323 0.0970701 0.000366916 0.0970779 1.71093e-06 272.47 
-0.33 -0.19 -1.51216 1.77798 0.0969252 0.0968085 0.000354471 0.0967413 1.70293e-06 272.8 
-0.37 -0.17 -0.573953 3.12702 0.0973373 0.0969236 -0.000202496 0.0971885 1.71441e-06 272.227 
-0.35 -0.17 -1.79042 2.27266 0.0975657 0.0967 0.0002076 0.09702 1.70564e-06 273.152 
-0.33 -0.17 -2.48329 2.67789 0.0977604 0.0971799 0.000165154 0.0974375 1.70656e-06 274.179 
-0.37 -0.15 -0.936429 3.00618 0.0976722 0.0970119 1.62165e-05 0.0973777 1.71965e-06 271.926 
-0.35 -0.15 -2.06983 3.6211 0.0976992 0.0967877 -0.000287402 0.0974818 1.71784e-06 272.502 
-0.33 -0.15 -2.47305 2.73414 0.097631 0.0970306 -0.000137085 0.0974441 1.71069e-06 273.535 
-0.35 -0.13 -2.12753 3.61822 0.0975311 0.0965845 -0.000126975 0.0970288 1.70992e-06 272.493 
-0.33 -0.13 -2.88247 3.21014 0.0974899 0.0968042 0.000101685 0.0970257 1.71034e-06 272.418 
-0.33 -0.09 -2.06056 3.43783 0.0975568 0.0966926 -5.56986e-05 0.0971315 1.70862e-06 272.989 
-0.37 -0.13 -2.74228 3.46836 0.0976022 0.097108 -0.000211994 0.0973119 1.71028e-06 273.23 
-0.37 -0.11 -2.31472 2.87517 0.0972264 0.0966751 -0.00019603 0.0972524 1.70952e-06 273.184 
-0.35 -0.11 -2.19752 3.76415 0.0974622 0.0968813 0.000186316 0.0973948 1.71391e-06 272.884 
-0.33 -0.11 -1.6813 3.53258 0.0974056 0.0964581 -0.00016443 0.0968693 1.70239e-06 273.249 
-0.35 -0.09 -2.09265 3.61966 0.097502 0.0968074 0.000143129 0.097194 1.70723e-06 273.386 
-0.49 -0.13 -0.168822 0.48044 0.0979499 0.0968694 -0.000439843 0.0971396 1.70978e-06 272.827 
-0.47 -0.13 -0.574585 1.39239 0.0972705 0.0966429 -5.00647e-05 0.0971929 1.71219e-06 272.592 
-0.45 -0.13 -0.518447 0.578628 0.0973779 0.0967564 -8.59713e-05 0.0970435 1.71258e-06 272.111 
-0.49 -0.11 0.109255 0.666925 0.0970036 0.0967304 -9.44511e-05 0.0970162 1.71191e-06 272.14 
-0.43 -0.13 -1.68263 2.16771 0.0973801 0.0965597 -4.05932e-05 0.0970167 1.70682e-06 272.954 
-0.47 -0.11 -0.402287 1.87473 0.097468 0.096803 -0.000239461 0.0971961 1.71161e-06 272.693 
-0.41 -0.13 -2.05323 2.63335 0.0977137 0.097333 -0.000135474 0.0976586 1.71855e-06 272.884 
-0.45 -0.11 -1.61552 1.33366 0.0976717 0.0966753 -8.43075e-05 0.097189 1.71131e-06 272.721 
-0.49 -0.09 -0.322727 1.20125 0.0976989 0.0965655 -0.000390886 0.0971043 1.71268e-06 272.265 
-0.39 -0.13 -2.46456 1.69538 0.0975268 0.0967942 -0.00026742 0.0971798 1.70895e-06 273.073 
-0.43 -0.11 -1.84224 2.29933 0.097323 0.0965689 -0.000447649 0.0972219 1.70971e-06 273.069 
-0.47 -0.09 -1.07466 1.96762 0.0976194 0.0967383 -0.000339585 0.0972441 1.70776e-06 273.444 
-0.41 -0.11 -1.8174 2.50197 0.0974887 0.0967997 -7.84294e-05 0.0974124 1.70299e-06 274.684 
-0.45 -0.09 -1.24911 1.52984 0.097689 0.0967538 -0.000287173 0.097369 1.71403e-06 272.793 
-0.39 -0.11 -2.32235 2.58738 0.0973123 0.0971104 9.88973e-05 0.0974811 1.70732e-06 274.18 
-0.43 -0.09 -1.29642 2.45614 0.0980399 0.0968291 -0.000353736 0.0974452 1.70782e-06 273.999 
-0.41 -0.09 -1.29426 2.51363 0.097799 0.0962213 -0.000237121 0.0971545 1.70464e-06 273.691 
-0.39 -0.09 -1.42057 2.95846 0.0977926 0.0971514 -2.17843e-05 0.0973892 1.71232e-06 273.122 
-0.37 -0.09 -1.98735 3.20689 0.0972477 0.0967903 1.54999e-05 0.0970218 1.70614e-06 273.077 
-0.35 -0.03 -1.33386 4.05815 0.0977283 0.0968803 9.78298e-05 0.0973653 1.71453e-06 272.702 
-0.37 -0.07 -1.95988 3.40923 0.0980819 0.0969164 1.68445e-05 0.0975869 1.71273e-06 273.611 
-0.41 -0.05 -1.50936 3.05024 0.0971913 0.0960601 -0.000467163 0.0965276 1.6982e-06 272.956 
-0.45 -0.03 -0.112553 3.04977 0.0970431 0.0965119 -0.000644767 0.0970053 1.71224e-06 272.057 
-0.35 -0.07 -2.35419 3.89097 0.0981761 0.096329 0.000137126 0.0973419 1.70963e-06 273.419 
-0.39 -0.05 -1.68795 2.77331 0.0972687 0.0968603 -0.000361401 0.0970744 1.70708e-06 273.075 
-0.43 -0.03 -0.00535216 4.0627 0.0974183 0.0964816 -0.000352343 0.0969959 1.70696e-06 272.873 
-0.33 -0.07 -2.0944 4.0405 0.098249 0.0969498 8.45212e-05 0.0975318 1.71598e-06 272.938 
-0.37 -0.05 -1.94142 4.33637 0.0970443 0.0967732 0.000135931 0.0969077 1.70688e-06 272.637 
-0.41 -0.03 -0.400864 2.8812 0.0974501 0.0968478 -0.000364109 0.097327 1.7121e-06 272.982 
-0.35 -0.05 -2.55801 3.72222 0.0969012 0.0961591 -9.64239e-05 0.0963228 1.69944e-06 272.178 
-0.39 -0.03 -0.900585 2.92078 0.0972991 0.0961576 -0.000224159 0.0968981 1.70237e-06 273.333 
-0.33 -0.05 -2.88241 4.10788 0.0973498 0.0965745 0.00033851 0.0969778 1.70039e-06 273.877 
-0.37 -0.03 -0.976154 4.38391 0.0973563 0.0963881 -3.0665e-05 0.0968774 1.70949e-06 272.136 
-0.33 -0.03 -1.49286 4.19408 0.0978086 0.0963881 -5.57966e-05 0.0968517 1.70279e-06 273.135 
-0.33 -0.01 -1.54437 3.65686 0.0971962 0.0962891 3.72998e-05 0.0964083 1.6937e-06 273.343 
-0.49 -0.07 -0.211417 1.60775 0.0972954 0.0964542 -0.000584998 0.0966674 1.70323e-06 272.545 
-0.47 -0.07 0.338158 1.52145 0.0971608 0.0963363 -0.000338434 0.0966603 1.69743e-06 273.456 
-0.45 -0.07 0.249387 2.65732 0.0974721 0.0969352 -0.000402505 0.097086 1.70536e-06 273.382 
-0.49 -0.05 -0.416094 1.95653 0.0967463 0.0962553 -0.000693364 0.0964527 1.70139e-06 272.233 
-0.43 -0.07 -0.713932 2.2697 0.0973796 0.0966047 -0.000306945 0.096972 1.70828e-06 272.595 
-0.47 -0.05 -0.166818 1.50467 0.0970397 0.0966685 -0.000427503 0.0967299 1.70784e-06 271.984 
-0.41 -0.07 -1.64225 2.48115 0.0972222 0.0964218 -0.000125393 0.0967001 1.69672e-06 273.682 
-0.45 -0.05 -0.299747 3.31426 0.0970486 0.096525 -0.000367723 0.0968011 1.7071e-06 272.303 
-0.49 -0.03 0.531224 1.88711 0.0973368 0.0960761 -0.000245754 0.0969387 1.7074e-06 272.642 
-0.39 -0.07 -1.70342 3.75076 0.0977787 0.0969059 -0.000318062 0.0972871 1.70646e-06 273.772 
-0.43 -0.05 -0.879164 3.56957 0.0970182 0.0969661 -0.000190746 0.0970154 1.7076e-06 272.825 
-0.47 -0.03 0.536901 1.92056 0.0969873 0.0967253 -0.000562554 0.0970804 1.71368e-06 272.04 
-0.27 -0.07 -3.14695 4.23431 0.0976467 0.0968897 0.00029554 0.0974436 1.71293e-06 273.177 
-0.31 -0.05 -2.42323 2.84213 0.0978212 0.0965597 0.000274453 0.0970919 1.7038e-06 273.649 
-0.27 -0.09 -2.28486 3.27229 0.0976545 0.0968723 0.00038063 0.097376 1.70918e-06 273.586 
-0.31 -0.07 -1.87028 2.3503 0.0978523 0.096414 0.000353152 0.0971655 1.70065e-06 274.365 
-0.29 -0.07 -3.09561 3.14683 0.0975434 0.096566 0.000360363 0.0970104 1.70432e-06 273.337 
-0.25 -0.07 -2.65923 2.75907 0.0976604 0.0973414 0.000312129 0.0974383 1.71331e-06 273.101 
-0.29 -0.05 -3.26601 4.38891 0.0976866 0.0966445 0.000264061 0.0968467 1.70492e-06 272.779 
-0.27 -0.05 -2.95488 4.49452 0.0977822 0.0972169 0.000260984 0.0973364 1.70889e-06 273.521 
-0.31 -0.03 -2.59746 3.93854 0.0976435 0.0966858 0.000297815 0.0971604 1.71025e-06 272.811 
-0.25 -0.05 -3.41152 2.55336 0.097644 0.09665 0.000454568 0.0972085 1.71387e-06 272.368 
-0.29 -0.03 -2.466 4.44118 0.0977736 0.09686 0.000321921 0.0971147 1.71104e-06 272.556 
-0.27 -0.03 -3.21846 4.20579 0.0974693 0.0970088 0.000520519 0.0973239 1.70696e-06 273.795 
-0.31 -0.01 -1.6002 5.17745 0.0975892 0.0968453 -7.72215e-05 0.0971883 1.71333e-06 272.398 
-0.25 -0.03 -3.07393 4.10703 0.0972645 0.0965359 0.000454762 0.0970744 1.70662e-06 273.148 
-0.29 -0.01 -2.41835 4.103 0.0973198 0.0966436 0.000199813 0.0967887 1.7053e-06 272.555 
-0.27 -0.01 -2.46036 4.89434 0.0973335 0.0965372 0.000381916 0.0972224 1.70717e-06 273.476 
-0.33 -0.25 -1.53023 0.839363 0.0978108 0.0968278 0.00039993 0.0972544 1.7125e-06 272.714 
-0.31 -0.25 -1.58902 0.733282 0.0976931 0.0969926 -2.78433e-05 0.0972001 1.71077e-06 272.839 
-0.29 -0.25 -2.03821 1.78547 0.0978069 0.0969522 3.1776e-05 0.0972771 1.71524e-06 272.343 
-0.27 -0.25 -2.51502 2.53957 0.0974384 0.0966265 7.08779e-05 0.0971889 1.71723e-06 271.781 
-0.29 -0.11 -1.53081 2.93888 0.0977591 0.0967288 0.000249205 0.097426 1.70813e-06 273.896 
-0.27 -0.11 -2.70267 2.71159 0.097499 0.0970232 0.000314569 0.0974415 1.70981e-06 273.67 
-0.31 -0.09 -2.6754 2.44337 0.0975861 0.0966096 -0.000241568 0.0973009 1.70814e-06 273.542 
-0.29 -0.09 -2.10506 3.21319 0.0976578 0.0968141 4.10715e-05 0.0973835 1.70787e-06 273.817 
-0.31 -0.23 -1.53747 1.59711 0.0979498 0.0971412 0.000410158 0.0977466 1.71813e-06 273.198 
-0.29 -0.23 -3.04873 2.09344 0.0977736 0.0966673 0.000247116 0.0972327 1.71355e-06 272.487 
-0.27 -0.23 -2.26488 2.7554 0.0976411 0.0967779 0.000370236 0.0972292 1.7138e-06 272.438 
-0.31 -0.21 -2.04157 2.63196 0.0973689 0.0967031 9.16935e-05 0.0969769 1.71437e-06 271.64 
-0.29 -0.21 -2.10984 2.96571 0.0976076 0.0963437 0.000318977 0.0971074 1.70682e-06 273.209 
-0.27 -0.21 -1.94202 1.98355 0.0975456 0.0968999 0.000167681 0.0973444 1.70866e-06 273.581 
-0.31 -0.19 -2.09836 2.91899 0.0971193 0.0969396 2.7397e-05 0.0970032 1.71026e-06 272.367 
-0.25 -0.21 -2.41464 1.51959 0.0978432 0.0971422 0.000123461 0.0974842 1.71308e-06 273.267 
-0.29 -0.19 -1.85183 2.8997 0.0973311 0.0961793 0.000201296 0.0968693 1.69993e-06 273.644 
-0.27 -0.19 -2.33304 1.66195 0.0978527 0.0969159 2.887e-05 0.0974155 1.70788e-06 273.905 
-0.31 -0.17 -2.06756 2.90037 0.0978801 0.0970163 9.78409e-05 0.0974566 1.70817e-06 273.975 
-0.25 -0.19 -2.78733 2.72632 0.0978848 0.0974544 -7.10883e-05 0.0975845 1.7137e-06 273.449 
-0.29 -0.17 -2.29839 2.73299 0.0975501 0.0966249 9.40222e-05 0.0973212 1.71141e-06 273.076 
-0.27 -0.17 -3.09677 2.28665 0.0975469 0.0971815 -0.000193162 0.0975498 1.71166e-06 273.677 
-0.31 -0.15 -2.99255 2.74252 0.0974075 0.0966663 0.000232841 0.0973937 1.71368e-06 272.918 
-0.25 -0.17 -3.14043 2.71625 0.0973137 0.0967466 -6.59296e-05 0.0970447 1.70649e-06 273.085 
-0.29 -0.15 -2.41867 3.13642 0.0977019 0.0973064 0.000295963 0.0976523 1.71099e-06 274.073 
-0.27 -0.15 -2.79699 2.58222 0.097595 0.0973295 0.000360263 0.0975138 1.71423e-06 273.166 
-0.31 -0.13 -2.4206 2.95944 0.0979718 0.0969372 -6.87827e-06 0.0975229 1.71525e-06 273.029 
-0.25 -0.15 -2.4249 2.3822 0.0971989 0.0966715 0.000236063 0.0967797 1.69883e-06 273.568 
-0.29 -0.13 -2.65895 3.14486 0.0977514 0.0970955 -1.09899e-05 0.0974911 1.71461e-06 273.043 
-0.27 -0.13 -2.14276 2.1959 0.097934 0.0971459 0.000474289 0.0973558 1.70421e-06 274.327 
-0.31 -0.11 -1.93559 2.44705 0.0975246 0.0968461 9.60549e-05 0.0973648 1.71151e-06 273.183 
-0.25 -0.13 -2.27629 2.54618 0.0980857 0.0969823 0.000320498 0.0975777 1.71635e-06 273.008 
-0.25 -0.23 -2.2437 1.1757 0.0977354 0.0971155 0.000210802 0.0975314 1.71468e-06 273.143 
-0.25 -0.11 -2.81876 2.97219 0.0979179 0.0974534 0.00026367 0.0976154 1.71158e-06 273.874 
-0.25 -0.09 -3.4047 3.13758 0.0974785 0.0973799 0.000310173 0.0974382 1.71091e-06 273.484 
-0.25 -0.01 -2.67553 4.74512 0.0975583 0.0970837 0.000559071 0.0973875 1.71292e-06 273.021 
-0.23 -0.49 -0.630401 0.700828 0.0970243 0.0973056 -1.47524e-05 0.0973035 1.71783e-06 272.006 
-0.21 -0.49 -0.591915 -0.58892 0.0971925 0.0969319 0.000235973 0.0972183 1.71204e-06 272.687 
-0.19 -0.49 -0.689188 0.306521 0.097 0.0971063 0.000356173 0.0970914 1.70793e-06 272.987 
-0.23 -0.47 0.487276 -0.613061 0.0978254 0.0976176 0.000508367 0.0977635 1.72022e-06 272.913 
-0.17 -0.49 -0.704832 -0.447171 0.0972489 0.0980177 0.000299841 0.0975626 1.71673e-06 272.905 
-0.21 -0.47 -0.0182038 0.234419 0.0970783 0.0965406 0.000346252 0.0969423 1.70647e-06 272.8 
-0.15 -0.49 -0.698236 -0.0745735 0.0971565 0.0971141 0.000520636 0.0971763 1.7128e-06 272.448 
-0.19 -0.47 -0.805033 0.953355 0.0974373 0.0974142 0.000184702 0.0972851 1.7102e-06 273.168 