ITEM: TIMESTEP
868000
ITEM: NUMBER OF CELLS
2500
ITEM: BOX BOUNDS ss ss pp
-0.5 0.5
-0.5 0.5
-0.5 0.5
ITEM: CELLS xc yc f_U[*] f_V[*] f_Tau[1] f_Tau[2] f_Tau[3] f_Press[*] f_Mrho[*] f_Ttra[*] 
-0.49 -0.49 -0.0886135 0.05265 0.0973167 0.0971407 -2.87426e-05 0.0972699 1.71053e-06 273.072 
-0.47 -0.49 -0.116383 -0.0566856 0.0973572 0.0974858 -7.29531e-05 0.0974574 1.71513e-06 272.864 
-0.45 -0.49 -0.00761032 -0.061131 0.0974528 0.0973367 1.32763e-05 0.0974672 1.71528e-06 272.868 
-0.49 -0.47 0.0201744 0.0165412 0.097338 0.0972844 -0.000130981 0.097291 1.71277e-06 272.774 
-0.43 -0.49 -0.0200862 0.116038 0.097442 0.097305 1.67662e-05 0.0972926 1.71102e-06 273.059 
-0.47 -0.47 0.248034 -0.0495254 0.0973839 0.0973807 3.54969e-05 0.0973916 1.71298e-06 273.023 
-0.41 -0.49 -0.0832888 0.0830198 0.0974686 0.0973732 6.06165e-05 0.0974432 1.71497e-06 272.85 
-0.45 -0.47 0.00215613 0.00716412 0.0973019 0.0972049 -2.70715e-05 0.0973926 1.71449e-06 272.785 
-0.49 -0.45 -0.0451013 -0.168755 0.0974125 0.0972808 -3.52622e-05 0.097296 1.71115e-06 273.046 
-0.39 -0.49 -0.27534 -0.0222436 0.0974281 0.0973094 4.36103e-05 0.0974683 1.71623e-06 272.721 
-0.43 -0.47 -0.100384 0.148697 0.0973148 0.0973653 3.76833e-05 0.0973257 1.71203e-06 272.99 
-0.47 -0.45 0.0346274 -0.173781 0.097277 0.0973573 -0.000143554 0.0973106 1.71271e-06 272.84 
-0.37 -0.49 -0.266355 0.0230795 0.0973782 0.097391 0.000160183 0.0975221 1.71418e-06 273.198 
-0.41 -0.47 -0.346086 0.213062 0.0974463 0.0973708 2.25351e-05 0.097496 1.71392e-06 273.166 
-0.45 -0.45 0.0263239 0.475809 0.0972755 0.0970867 0.000106835 0.0972534 1.71394e-06 272.483 
-0.49 -0.43 -0.0417895 -0.0534361 0.0973382 0.0972938 0.000113295 0.0973722 1.71231e-06 273.075 
-0.35 -0.49 -0.476227 0.245586 0.0973497 0.0973971 2.20889e-05 0.0975357 1.71568e-06 272.998 
-0.39 -0.47 -0.277144 0.0290078 0.0974933 0.0972865 0.000163435 0.0974395 1.71239e-06 273.252 
-0.43 -0.45 -0.406724 0.117485 0.0972874 0.0975257 -7.62693e-05 0.097511 1.71606e-06 272.868 
-0.47 -0.43 -0.180715 -0.269361 0.0972632 0.0973599 1.2126e-05 0.0973474 1.71186e-06 273.078 
-0.37 -0.47 -0.355446 0.163919 0.0975162 0.0973847 7.32763e-05 0.0974495 1.71384e-06 273.048 
-0.41 -0.45 -0.171221 0.261706 0.0971772 0.0972072 -1.8747e-05 0.0971995 1.71153e-06 272.716 
-0.45 -0.43 -0.323078 0.676532 0.0972494 0.0971912 8.67825e-05 0.0973867 1.71422e-06 272.811 
-0.49 -0.41 0.0955319 -0.104431 0.097236 0.097329 9.72492e-05 0.0972975 1.71318e-06 272.728 
-0.35 -0.47 -0.513715 0.370467 0.0975242 0.0974645 0.000113869 0.0974445 1.71383e-06 273.036 
-0.39 -0.45 -0.330145 0.134941 0.0971854 0.0972403 1.61157e-05 0.0971618 1.70828e-06 273.128 
-0.43 -0.43 -0.4695 0.310731 0.0973944 0.0973343 -8.01004e-05 0.0974766 1.71278e-06 273.293 
-0.47 -0.41 -0.0747274 0.171293 0.0973151 0.0973156 -2.53258e-05 0.0972872 1.71336e-06 272.669 
-0.37 -0.45 -0.548011 0.308858 0.0973254 0.0974287 1.65698e-05 0.0974109 1.71376e-06 272.953 
-0.41 -0.43 -0.542487 0.241439 0.0973944 0.0971882 -4.04609e-05 0.0973558 1.7119e-06 273.095 
-0.45 -0.41 -0.334985 0.415559 0.0974519 0.0973708 3.79442e-06 0.0975201 1.71507e-06 273.05 
-0.49 -0.39 -0.180932 0.0895087 0.0975091 0.0973838 -8.33608e-06 0.097496 1.71418e-06 273.124 
-0.35 -0.45 -0.526139 0.326781 0.0972697 0.0972807 0.000139786 0.0972767 1.7122e-06 272.826 
-0.39 -0.43 -0.321746 -0.0175831 0.0973733 0.0973127 1.52612e-05 0.0973359 1.7132e-06 272.832 
-0.43 -0.41 -0.124154 0.593333 0.097344 0.0973351 3.34502e-06 0.0974202 1.71363e-06 273 
-0.47 -0.39 -0.368472 0.205783 0.0975126 0.0973398 -5.98059e-08 0.0973736 1.7146e-06 272.715 
-0.33 -0.45 -0.538622 0.251866 0.0974357 0.097327 0.000133637 0.0972849 1.71347e-06 272.647 
-0.37 -0.43 -0.63331 0.612134 0.097436 0.0973313 4.25775e-05 0.0973875 1.71401e-06 272.848 
-0.41 -0.41 -0.483227 0.212789 0.0972197 0.0971296 2.09969e-05 0.0973037 1.71267e-06 272.826 
-0.45 -0.39 -0.285913 0.388054 0.0976296 0.0973281 -9.04428e-05 0.0974309 1.71586e-06 272.675 
-0.35 -0.43 -0.548288 0.253272 0.0974006 0.0974017 0.000115058 0.0974215 1.7127e-06 273.151 
-0.39 -0.41 -0.809109 0.409612 0.0974514 0.0974066 -5.93878e-05 0.0974699 1.71453e-06 272.995 
-0.43 -0.39 -0.148719 0.660956 0.0977386 0.0973471 2.44491e-05 0.0975786 1.71712e-06 272.887 
-0.37 -0.41 -0.717167 0.465672 0.0972744 0.0970978 5.16231e-05 0.0972463 1.70925e-06 273.211 
-0.41 -0.39 -0.265592 0.423636 0.0976547 0.0972884 -2.71577e-06 0.0975567 1.7148e-06 273.196 
-0.35 -0.41 -0.644247 0.131492 0.0973876 0.0974009 3.8305e-05 0.0973817 1.71302e-06 272.988 
-0.39 -0.39 -0.611856 0.652704 0.0974899 0.0973014 8.62323e-06 0.0974586 1.71359e-06 273.113 
-0.33 -0.41 -0.405472 0.33259 0.0973771 0.0974105 5.67053e-05 0.0973798 1.71214e-06 273.124 
-0.37 -0.39 -0.4274 0.199304 0.0974295 0.0971353 4.68423e-05 0.0973641 1.7111e-06 273.246 
-0.35 -0.39 -0.212114 0.184014 0.0973479 0.0973008 9.54188e-05 0.0973874 1.71154e-06 273.241 
-0.33 -0.39 -0.545876 0.435044 0.0974959 0.0973647 7.32224e-05 0.0974109 1.71353e-06 272.99 
-0.37 -0.37 -0.537729 0.203836 0.0975625 0.0972222 6.12821e-05 0.0973415 1.71108e-06 273.186 
-0.49 -0.37 -0.0529067 0.119911 0.0975009 0.0974092 -0.000150795 0.0974809 1.71452e-06 273.028 
-0.47 -0.37 -0.0337695 0.441654 0.0975509 0.0973656 -9.54226e-05 0.0974897 1.71439e-06 273.074 
-0.45 -0.37 -0.175303 0.301877 0.0974577 0.0971456 -8.58593e-05 0.0972977 1.71355e-06 272.669 
-0.49 -0.35 -0.161138 0.435667 0.0975368 0.0973797 -7.11769e-05 0.0975542 1.71278e-06 273.511 
-0.43 -0.37 -0.402983 0.782002 0.097509 0.0971929 1.58569e-05 0.0973976 1.71389e-06 272.895 
-0.47 -0.35 -0.430514 0.295963 0.0975035 0.0973163 -2.05375e-05 0.0974026 1.71261e-06 273.114 
-0.45 -0.35 -0.240051 0.477304 0.0976636 0.0972931 -6.4083e-05 0.097485 1.71263e-06 273.341 
-0.49 -0.33 -0.0670044 0.55737 0.0974574 0.0972878 -0.000172135 0.0974485 1.7142e-06 272.989 
-0.39 -0.37 -0.357288 0.504419 0.0975726 0.0971668 -1.25533e-06 0.0974323 1.71122e-06 273.418 
-0.43 -0.35 -0.201124 0.870955 0.097583 0.097126 -2.50698e-05 0.0973902 1.71085e-06 273.359 
-0.47 -0.33 0.0886422 0.333632 0.0974183 0.0972649 -9.86538e-05 0.0973324 1.71211e-06 272.997 
-0.41 -0.35 -0.162642 0.589323 0.0975305 0.097342 3.74568e-05 0.0975249 1.71458e-06 273.141 
-0.45 -0.33 -0.0660959 0.465261 0.0974227 0.097362 -7.60788e-05 0.0974508 1.71363e-06 273.085 
-0.49 -0.31 0.0718154 0.608835 0.097302 0.0972077 -0.000119438 0.097242 1.71126e-06 272.877 
-0.39 -0.35 -0.293674 0.589399 0.0975767 0.0971249 5.35546e-05 0.0974359 1.71223e-06 273.266 
-0.43 -0.33 -0.086955 0.872657 0.0973787 0.0969178 -8.33463e-05 0.097241 1.71189e-06 272.775 
-0.47 -0.31 -0.230234 0.34522 0.0973699 0.0971956 -9.11887e-05 0.0973054 1.7086e-06 273.481 
-0.37 -0.35 -0.272111 0.397643 0.097633 0.0971999 0.000138539 0.0973994 1.71243e-06 273.132 
-0.41 -0.33 -0.207544 0.718402 0.0975058 0.0973718 -2.43432e-05 0.0974296 1.71238e-06 273.225 
-0.45 -0.31 -0.203979 0.531401 0.0974261 0.0973506 2.65375e-05 0.0974088 1.71235e-06 273.173 
-0.49 -0.29 0.0267295 0.537919 0.0975583 0.0972738 -8.35665e-05 0.0974651 1.7142e-06 273.035 
-0.35 -0.35 -0.735396 0.504753 0.0975085 0.0973875 -2.99417e-05 0.0974708 1.7149e-06 272.94 
-0.39 -0.33 -0.181301 0.683113 0.0975541 0.0970198 -3.63156e-05 0.0973465 1.71007e-06 273.361 
-0.43 -0.31 -0.244197 0.857251 0.0973444 0.0971072 -0.000126008 0.0971842 1.71031e-06 272.867 
-0.47 -0.29 -0.00153688 0.71875 0.097537 0.0971045 -0.000160076 0.0973142 1.71002e-06 273.279 
-0.37 -0.33 -0.592044 0.730121 0.0976403 0.0972606 3.68758e-05 0.0974828 1.71441e-06 273.051 
-0.41 -0.31 -0.161507 0.85733 0.0973499 0.0972716 -0.000178746 0.0972585 1.71109e-06 272.951 
-0.45 -0.29 -0.239959 0.587701 0.0975626 0.0973957 -2.82952e-05 0.0974829 1.71273e-06 273.319 
-0.49 -0.27 -0.101823 0.718549 0.0974782 0.0973958 -0.000143152 0.0973876 1.71126e-06 273.286 
-0.35 -0.33 -0.943075 0.979705 0.0977902 0.0973885 0.000177139 0.0976049 1.71469e-06 273.348 
-0.39 -0.31 -0.402225 0.837202 0.0974789 0.0970808 4.22455e-05 0.0973489 1.71032e-06 273.328 
-0.43 -0.29 -0.530223 0.68468 0.097646 0.0972497 -6.75e-05 0.0975142 1.71355e-06 273.276 
-0.47 -0.27 -0.138733 0.429332 0.0975524 0.0971237 -0.000204738 0.0972982 1.71151e-06 272.996 
-0.33 -0.33 -1.08288 0.949031 0.097656 0.0973137 0.000100207 0.0975457 1.71495e-06 273.141 
-0.37 -0.31 -0.873815 1.32368 0.0974589 0.0970696 -7.2295e-05 0.0972648 1.71122e-06 272.948 
-0.41 -0.29 -0.627751 1.17387 0.0975216 0.0971967 -8.14906e-05 0.0974214 1.71355e-06 273.016 
-0.45 -0.27 0.0825985 1.06709 0.0975889 0.0972167 -0.00012514 0.0974887 1.71213e-06 273.431 
-0.35 -0.31 -1.1124 0.992587 0.0973944 0.0972602 0.000133081 0.0973293 1.71025e-06 273.284 
-0.39 -0.29 -0.803746 0.848883 0.0973195 0.0969673 -0.000159537 0.0972052 1.71066e-06 272.87 
-0.43 -0.27 -0.268123 0.994869 0.0976237 0.0971875 -7.32527e-05 0.0974715 1.71509e-06 272.911 
-0.37 -0.29 -0.410579 1.54016 0.0974154 0.0969788 2.27959e-05 0.0971966 1.70989e-06 272.969 
-0.41 -0.27 -0.440086 1.01252 0.0976338 0.0973048 -7.04538e-05 0.0974552 1.71584e-06 272.746 
-0.35 -0.29 -0.773916 1.01375 0.0975992 0.0972931 -2.28225e-05 0.0974918 1.71334e-06 273.246 
-0.39 -0.27 -0.395329 1.01601 0.0977151 0.0969087 -8.1019e-05 0.0973933 1.7144e-06 272.802 
-0.33 -0.29 -0.978768 1.59103 0.0976081 0.0971112 0.000178969 0.0973794 1.71155e-06 273.216 
-0.37 -0.27 -0.725519 1.55028 0.0976785 0.0969081 -7.38211e-05 0.0973491 1.71317e-06 272.874 
-0.35 -0.27 -1.1532 1.57124 0.097708 0.0971197 -2.07528e-05 0.0974474 1.7156e-06 272.762 
-0.41 -0.37 -0.404185 0.731118 0.0975808 0.0973513 4.97525e-05 0.0974987 1.71346e-06 273.247 
-0.35 -0.37 -0.514641 0.220244 0.0975756 0.0973086 -5.83481e-06 0.0974485 1.71408e-06 273.007 
-0.45 -0.25 -0.324253 0.966822 0.0975519 0.0971581 -0.000209195 0.0974137 1.71399e-06 272.924 
-0.37 -0.25 -0.763428 1.55326 0.0976067 0.0968625 -6.56953e-05 0.0972144 1.71308e-06 272.51 
-0.35 -0.25 -0.627684 1.79561 0.0976146 0.0969684 3.54676e-05 0.0973176 1.71507e-06 272.483 
-0.33 -0.49 -0.798146 -0.0160174 0.0974005 0.0974488 0.000112498 0.0974424 1.71477e-06 272.88 
-0.31 -0.49 -0.821742 0.0317871 0.0974009 0.0972202 0.000229651 0.0973076 1.71097e-06 273.108 
-0.29 -0.49 -0.829866 -0.0712755 0.0975235 0.0974073 0.000110324 0.0975038 1.71516e-06 272.991 
-0.33 -0.47 -0.54047 0.165233 0.0974308 0.0972101 0.000131129 0.0972748 1.71313e-06 272.672 
-0.27 -0.49 -0.566545 0.10124 0.097655 0.0974127 0.000187128 0.0974916 1.71521e-06 272.948 
-0.31 -0.47 -0.635895 0.00384814 0.0974163 0.0973879 0.00012272 0.0973732 1.71375e-06 272.849 
-0.29 -0.47 -0.667894 -0.0429854 0.0974382 0.0973548 0.000114177 0.0973584 1.71242e-06 273.019 
-0.27 -0.47 -0.745396 0.0142003 0.0973836 0.0972249 0.000100029 0.0973454 1.71357e-06 272.8 
-0.31 -0.45 -0.520733 0.169745 0.0976188 0.0974908 8.32771e-05 0.0974884 1.71517e-06 272.946 
-0.29 -0.45 -0.537642 0.0170483 0.097569 0.097381 0.000151874 0.0974911 1.71417e-06 273.113 
-0.33 -0.43 -0.508719 0.397541 0.0973854 0.0973415 7.93337e-05 0.0973974 1.71228e-06 273.151 
-0.27 -0.45 -0.741035 -0.111534 0.0974317 0.0972749 0.000106297 0.0972596 1.70941e-06 273.223 
-0.31 -0.43 -0.48929 0.111212 0.0973182 0.0973553 4.5221e-05 0.0972961 1.71181e-06 272.941 
-0.29 -0.43 -0.716856 0.216185 0.0973282 0.0972708 0.000195349 0.0973351 1.70953e-06 273.415 
-0.27 -0.43 -0.669967 -0.186666 0.0974653 0.097202 0.000285974 0.0972771 1.70876e-06 273.376 
-0.31 -0.41 -0.459148 0.341214 0.0973391 0.0971407 0.000135524 0.0972217 1.70853e-06 273.256 
-0.29 -0.41 -0.759302 0.351689 0.0973614 0.0972409 0.0001789 0.0972861 1.70746e-06 273.609 
-0.27 -0.41 -0.956535 -0.223299 0.0973107 0.0972626 0.000191078 0.0971939 1.70861e-06 273.166 
-0.31 -0.39 -0.90014 0.639968 0.0975329 0.0971592 5.23127e-05 0.0972601 1.71329e-06 272.606 
-0.29 -0.39 -0.761351 0.347141 0.0975201 0.0972046 0.00011658 0.0973121 1.71076e-06 273.155 
-0.33 -0.37 -0.617778 0.873005 0.097538 0.0973156 4.79451e-05 0.0974124 1.71267e-06 273.131 
-0.27 -0.39 -1.00321 0.322585 0.0976137 0.0973988 0.000159446 0.0974858 1.71406e-06 273.115 
-0.31 -0.37 -0.82707 0.655268 0.0974393 0.097153 9.29969e-05 0.0972283 1.70955e-06 273.112 
-0.29 -0.37 -1.05973 0.425283 0.0973668 0.0971411 0.000172466 0.0972921 1.71025e-06 273.18 
-0.33 -0.35 -0.888096 0.944678 0.0976088 0.097216 6.07757e-05 0.0973897 1.71375e-06 272.896 
-0.27 -0.37 -1.32626 0.69078 0.0975399 0.0972445 9.92384e-05 0.0973855 1.71227e-06 273.119 
-0.31 -0.35 -1.02212 1.01011 0.097674 0.0971257 0.00017474 0.0973032 1.71367e-06 272.665 
-0.29 -0.35 -1.24406 0.587663 0.0976727 0.0971924 0.000102749 0.0973625 1.71308e-06 272.926 
-0.27 -0.35 -1.50626 1.13485 0.097541 0.0972562 0.000111626 0.0973924 1.71583e-06 272.572 
-0.31 -0.33 -1.05798 1.01253 0.0975766 0.0968654 7.84691e-05 0.0972564 1.7137e-06 272.53 
-0.29 -0.33 -1.25789 0.845272 0.0974731 0.0971455 0.000219343 0.0974259 1.71335e-06 273.06 
-0.33 -0.31 -1.19482 1.03771 0.0975341 0.0972913 0.000104531 0.0973772 1.71373e-06 272.864 
-0.27 -0.33 -1.53877 1.36123 0.0976306 0.0973338 0.00017438 0.0975694 1.71629e-06 272.994 
-0.31 -0.31 -1.11074 0.828045 0.0974156 0.0969639 0.000194242 0.0973249 1.71425e-06 272.635 
-0.29 -0.31 -1.30811 1.35484 0.0976158 0.0971791 3.48554e-05 0.0974673 1.71582e-06 272.784 
-0.27 -0.31 -1.47909 1.48855 0.0977154 0.0973081 0.000105075 0.0975158 1.71316e-06 273.343 
-0.31 -0.29 -1.52734 0.938827 0.0977071 0.09706 0.00011211 0.0974147 1.71286e-06 273.108 
-0.29 -0.29 -1.59028 1.42704 0.0976844 0.0971733 1.49652e-05 0.0974734 1.7149e-06 272.947 
-0.27 -0.29 -1.67036 1.35534 0.0976411 0.0973363 5.80853e-05 0.097521 1.71327e-06 273.339 
-0.31 -0.27 -1.17073 1.40711 0.097662 0.0972029 4.68883e-05 0.0974605 1.71285e-06 273.237 
-0.25 -0.29 -1.78889 1.32724 0.0976094 0.0972229 0.00028196 0.0974415 1.71247e-06 273.245 
-0.29 -0.27 -1.46335 1.4776 0.0977367 0.0971807 -7.33124e-06 0.0974441 1.71078e-06 273.522 
-0.27 -0.27 -1.88641 1.52748 0.0976254 0.0971754 0.000175057 0.0974189 1.71184e-06 273.282 
-0.25 -0.27 -2.08313 1.75643 0.0975997 0.0970961 0.000191374 0.0972961 1.71088e-06 273.09 
-0.33 -0.27 -1.31347 1.46017 0.0976842 0.0970179 0.000120306 0.0972935 1.71183e-06 272.932 
-0.25 -0.49 -0.756861 -0.186377 0.0975021 0.0976171 0.00022971 0.0976227 1.71764e-06 272.928 
-0.25 -0.47 -0.529086 0.14806 0.0976293 0.0976114 0.000231265 0.0974886 1.71508e-06 272.961 
-0.25 -0.45 -0.736982 0.153748 0.0972102 0.0973828 0.000235348 0.0971774 1.70709e-06 273.363 
-0.25 -0.37 -1.56737 0.641815 0.0975302 0.0973192 0.0001521 0.0974747 1.71071e-06 273.619 
-0.25 -0.35 -1.59257 0.44041 0.0976275 0.0972202 0.000118387 0.0974199 1.71332e-06 273.049 
-0.25 -0.33 -1.70776 0.713723 0.0975897 0.0971575 4.32173e-05 0.0974642 1.71288e-06 273.243 
-0.25 -0.25 -2.43429 1.7084 0.0978388 0.0972159 6.55013e-05 0.0975897 1.71492e-06 273.269 
-0.49 -0.25 0.139837 0.570932 0.0977447 0.0973746 -5.82328e-05 0.0975302 1.71285e-06 273.433 
-0.47 -0.25 0.0136947 0.571774 0.0974805 0.0970508 -0.000153323 0.097293 1.71128e-06 273.018 
-0.49 -0.23 -0.152272 0.562666 0.0974221 0.0971636 -0.000136319 0.0972479 1.70998e-06 273.099 
-0.47 -0.23 0.00950703 0.752777 0.0976799 0.0972284 -0.000152851 0.0973895 1.71258e-06 273.08 
-0.45 -0.23 -0.0231566 1.14187 0.0975912 0.0970722 -0.000280464 0.0973441 1.71117e-06 273.178 
-0.49 -0.21 0.0324569 0.741321 0.0975187 0.0972448 -0.00022693 0.0975375 1.71324e-06 273.391 
-0.43 -0.23 -0.361622 1.12756 0.0976996 0.0972091 -0.000145387 0.0973575 1.71199e-06 273.085 
-0.47 -0.21 -0.110563 0.682353 0.0974356 0.0972999 -0.00011943 0.0975126 1.7154e-06 272.977 
-0.41 -0.23 -0.581949 1.62899 0.0976574 0.0971444 5.92909e-06 0.0974328 1.71515e-06 272.793 
-0.45 -0.21 -0.090206 1.00528 0.0975601 0.0971222 -0.000256685 0.0974377 1.71469e-06 272.881 
-0.49 -0.19 -0.0853697 0.827905 0.097617 0.0971182 -0.000234091 0.0973751 1.71373e-06 272.857 
-0.39 -0.23 -0.649296 1.20497 0.0975676 0.0970247 3.02657e-05 0.0972961 1.71432e-06 272.543 
-0.43 -0.21 -0.403591 1.69927 0.0975645 0.0970131 -0.000162481 0.0972753 1.71208e-06 272.841 
-0.47 -0.19 -0.470148 0.940207 0.0977055 0.097361 -0.000286019 0.097521 1.71725e-06 272.706 
-0.41 -0.21 -0.536586 1.6098 0.0975591 0.0970673 -8.5015e-05 0.0973003 1.71231e-06 272.873 
-0.45 -0.19 -0.929863 1.4215 0.0975468 0.0971362 -0.000225492 0.0973931 1.71326e-06 272.983 
-0.49 -0.17 -0.215205 0.988151 0.0973922 0.0970894 -0.000220433 0.0972631 1.71218e-06 272.79 
-0.39 -0.21 -0.500401 1.37212 0.0976875 0.0969446 -5.90064e-07 0.0973184 1.70797e-06 273.618 
-0.43 -0.19 -0.601926 1.43188 0.0975461 0.0969668 -0.000142996 0.0973226 1.70915e-06 273.441 
-0.47 -0.17 -0.394381 1.13795 0.0974424 0.0972509 -0.000258542 0.097368 1.71327e-06 272.911 
-0.41 -0.19 -0.336204 1.51972 0.0976466 0.0969823 -0.000135333 0.0973739 1.71281e-06 273 
-0.45 -0.17 -0.187029 1.36385 0.097632 0.0971339 -0.000238246 0.0974161 1.71299e-06 273.09 
-0.49 -0.15 0.0387652 1.07387 0.097421 0.0972314 -0.000325004 0.0973234 1.71594e-06 272.362 
-0.39 -0.19 -0.917402 1.9134 0.0977567 0.0970312 -0.000109779 0.097317 1.7099e-06 273.305 
-0.43 -0.17 -0.340578 1.38047 0.097589 0.0970157 -0.000226277 0.097394 1.71031e-06 273.456 
-0.47 -0.15 -0.13621 1.29712 0.0975281 0.0972251 -0.00035057 0.0974147 1.71439e-06 272.863 
-0.41 -0.17 -0.81269 1.9017 0.0975617 0.0968962 -0.00021974 0.0971946 1.71019e-06 272.915 
-0.45 -0.15 -0.346012 1.3562 0.0974732 0.0971194 -0.000237664 0.0972996 1.71168e-06 272.972 
-0.39 -0.17 -1.10989 2.2779 0.097508 0.0969171 -0.000120269 0.0972412 1.70803e-06 273.391 
-0.43 -0.15 -0.508311 1.77631 0.0975317 0.0968235 -0.000128113 0.0972012 1.70851e-06 273.202 
-0.41 -0.15 -0.961202 2.2896 0.0975143 0.0969465 -0.000172414 0.0972209 1.71007e-06 273.009 
-0.39 -0.15 -1.15079 2.41283 0.0975705 0.0968061 -0.000147235 0.0972534 1.71014e-06 273.089 
-0.43 -0.25 -0.136593 1.10669 0.0976648 0.0971217 -0.00015433 0.0974662 1.71211e-06 273.371 
-0.41 -0.25 -0.386746 1.31893 0.0976808 0.097291 -8.91594e-05 0.0974805 1.71455e-06 273.023 
-0.39 -0.25 -0.630817 1.31338 0.097691 0.0969274 -7.49382e-05 0.097287 1.71352e-06 272.645 
-0.37 -0.23 -0.693397 1.82357 0.0975039 0.0968961 -2.03252e-05 0.0972432 1.71377e-06 272.482 
-0.35 -0.23 -1.19787 1.94663 0.0975558 0.0970342 -0.000108986 0.0973502 1.71571e-06 272.472 
-0.33 -0.23 -1.52466 1.97288 0.0974617 0.0970191 -7.57966e-05 0.0972274 1.71028e-06 272.993 
-0.37 -0.21 -0.898992 2.28561 0.0977959 0.0969866 -4.89471e-05 0.0974141 1.71148e-06 273.326 
-0.35 -0.21 -1.22753 2.44778 0.0977442 0.0970864 -0.000148901 0.0974181 1.71344e-06 273.024 
-0.33 -0.21 -1.30149 2.17422 0.0977853 0.0970271 3.61777e-05 0.0973912 1.71335e-06 272.963 
-0.37 -0.19 -1.26571 2.26897 0.0977944 0.0969954 -5.9586e-05 0.0974492 1.71298e-06 273.185 
-0.35 -0.19 -1.30612 2.53742 0.0976288 0.0968947 1.9835e-05 0.0972529 1.71338e-06 272.57 
-0.33 -0.19 -1.36072 2.33697 0.0975963 0.0969434 4.59091e-05 0.0972746 1.71022e-06 273.135 
-0.37 -0.17 -1.05833 2.58573 0.0975006 0.0969189 -5.34617e-05 0.0972112 1.71029e-06 272.947 
-0.35 -0.17 -1.50189 2.61787 0.0976137 0.0969327 7.50376e-05 0.0973002 1.71129e-06 273.036 
-0.33 -0.17 -1.77729 2.49312 0.0976283 0.0969654 2.41746e-05 0.0973053 1.71076e-06 273.135 
-0.37 -0.15 -1.29155 2.78088 0.0976113 0.0968152 -7.07025e-05 0.0971997 1.7079e-06 273.296 
-0.35 -0.15 -1.41184 2.81744 0.0976033 0.0969445 -6.67861e-05 0.0972921 1.71031e-06 273.17 
-0.33 -0.15 -1.60873 2.7057 0.0975529 0.0969343 4.64919e-05 0.0971545 1.70881e-06 273.024 
-0.35 -0.13 -1.46841 3.08492 0.0976455 0.0967727 -3.78819e-05 0.0972227 1.71232e-06 272.654 
-0.33 -0.13 -1.84642 2.88802 0.0976029 0.0968927 7.99935e-05 0.0972864 1.71266e-06 272.778 
-0.33 -0.09 -1.75743 3.49439 0.0974264 0.0965238 3.01526e-05 0.0969831 1.70927e-06 272.469 
-0.37 -0.13 -1.66331 2.7387 0.0975607 0.0968827 -0.00013357 0.0971469 1.71008e-06 272.798 
-0.37 -0.11 -1.68891 2.74705 0.0975009 0.0967308 -0.000153235 0.0970787 1.70812e-06 272.919 
-0.35 -0.11 -1.81952 3.22136 0.0974043 0.0966909 -4.31912e-05 0.0971241 1.70856e-06 272.978 
-0.33 -0.11 -1.82777 3.31063 0.0974033 0.0966247 0.000119367 0.0971018 1.71007e-06 272.675 
-0.35 -0.09 -1.39332 3.17277 0.0974062 0.0965825 -1.87325e-05 0.0970122 1.70747e-06 272.837 
-0.49 -0.13 0.0523122 1.22673 0.0974475 0.09726 -0.000461767 0.0973021 1.71075e-06 273.128 
-0.47 -0.13 -0.0288599 1.4338 0.0974308 0.0969804 -0.000346812 0.0972466 1.70954e-06 273.165 
-0.45 -0.13 -0.220155 1.42733 0.0975363 0.0970766 -0.000221361 0.0972774 1.7128e-06 272.733 
-0.49 -0.11 0.0209662 1.08579 0.0976497 0.097217 -0.000392458 0.0974478 1.71409e-06 273.004 
-0.43 -0.13 -0.759788 2.18149 0.0975248 0.0967719 -0.000260454 0.0971789 1.70897e-06 273.067 
-0.47 -0.11 -0.0758372 1.56478 0.0976149 0.0969647 -0.000313557 0.0973083 1.7117e-06 272.993 
-0.41 -0.13 -1.0145 2.72986 0.0975557 0.0970001 -0.000245969 0.0972807 1.71218e-06 272.84 
-0.45 -0.11 -0.564069 2.08483 0.0974997 0.0969603 -0.000250274 0.0972728 1.71013e-06 273.144 
-0.49 -0.09 -0.107703 1.1387 0.0974474 0.0971432 -0.000311997 0.0972933 1.71219e-06 272.873 
-0.39 -0.13 -1.52823 2.58305 0.0976154 0.0968451 -0.000153633 0.097243 1.71142e-06 272.855 
-0.43 -0.11 -0.844081 2.45237 0.0974331 0.0968233 -0.000310362 0.0972119 1.70826e-06 273.272 
-0.47 -0.09 -0.480397 2.09819 0.0974669 0.096927 -0.000372383 0.0971407 1.7083e-06 273.066 
-0.41 -0.11 -1.09671 3.13859 0.0974942 0.0968952 -0.000283261 0.0972221 1.70987e-06 273.044 
-0.45 -0.09 -0.561059 2.1813 0.0974918 0.0968617 -0.000278993 0.0972955 1.7108e-06 273.102 
-0.39 -0.11 -1.2874 2.93479 0.0974535 0.0968519 -7.86557e-05 0.0971857 1.70919e-06 273.05 
-0.43 -0.09 -0.717204 2.68558 0.0976205 0.0970357 -0.000288978 0.0972867 1.70869e-06 273.414 
-0.41 -0.09 -0.938938 3.29537 0.0973833 0.0965902 -0.000202665 0.0969665 1.70603e-06 272.939 
-0.39 -0.09 -0.996971 2.96348 0.097503 0.0967936 -0.000166948 0.0970966 1.70939e-06 272.768 
-0.37 -0.09 -1.16856 3.37111 0.0974286 0.0967267 -0.000105192 0.0970057 1.70691e-06 272.908 
-0.35 -0.03 -1.87474 4.25913 0.0975602 0.0964503 -8.89727e-05 0.0970681 1.70563e-06 273.29 
-0.37 -0.07 -1.22536 3.2906 0.0974358 0.096604 -6.94283e-05 0.0970895 1.7084e-06 272.906 
-0.41 -0.05 -0.968622 3.39556 0.0972863 0.0965489 -0.000280953 0.0968845 1.70486e-06 272.896 
-0.45 -0.03 -0.395934 3.0519 0.097275 0.0965291 -0.000358475 0.097 1.7058e-06 273.07 
-0.35 -0.07 -1.63681 3.58648 0.0975932 0.0964698 -2.29758e-05 0.0971122 1.70829e-06 272.987 
-0.39 -0.05 -0.783201 3.5054 0.0974172 0.0966311 -0.000255138 0.0970547 1.70977e-06 272.589 
-0.43 -0.03 -0.592628 3.30392 0.0974452 0.0968515 -0.00022384 0.0971645 1.70793e-06 273.192 
-0.33 -0.07 -1.71159 3.64376 0.097579 0.0965576 -5.62847e-06 0.0971254 1.70929e-06 272.865 
-0.37 -0.05 -1.30067 3.70794 0.0974486 0.0966107 -0.000125012 0.0970131 1.70818e-06 272.726 
-0.41 -0.03 -1.04822 3.31733 0.0974893 0.0966966 -0.000200757 0.0970901 1.70667e-06 273.184 
-0.35 -0.05 -1.52277 3.90801 0.0973656 0.0962941 -4.25456e-05 0.0968567 1.70625e-06 272.595 
-0.39 -0.03 -1.48016 3.71377 0.0973736 0.0964875 -0.00016038 0.0968497 1.70731e-06 272.406 
-0.33 -0.05 -2.07937 4.17654 0.0975644 0.0965474 2.36332e-05 0.0971029 1.71037e-06 272.63 
-0.37 -0.03 -1.27544 4.09583 0.0974291 0.0964564 -0.000198247 0.0969518 1.70778e-06 272.618 
-0.33 -0.03 -1.9705 4.31328 0.0974633 0.0964357 -2.62985e-06 0.096994 1.70634e-06 272.966 
-0.33 -0.01 -2.01299 4.29317 0.0975564 0.0963485 -9.91024e-05 0.0969235 1.70442e-06 273.076 
-0.49 -0.07 -0.20536 1.42624 0.0973459 0.0970736 -0.000444724 0.0971778 1.70954e-06 272.972 
-0.47 -0.07 -0.404599 2.2347 0.0973589 0.0967961 -0.000305025 0.097127 1.70842e-06 273.008 
-0.45 -0.07 -0.559033 2.23441 0.0973657 0.0968479 -0.000380016 0.0970462 1.70765e-06 272.904 
-0.49 -0.05 -0.204992 1.87144 0.0973578 0.096894 -0.000440632 0.0970377 1.70706e-06 272.975 
-0.43 -0.07 -0.638411 2.82232 0.0974317 0.096893 -0.000301999 0.0971337 1.70709e-06 273.24 
-0.47 -0.05 -0.156335 2.24147 0.09743 0.0968922 -0.000428968 0.097214 1.71146e-06 272.767 
-0.41 -0.07 -0.756809 3.47591 0.0976249 0.0966403 -0.000181455 0.0970812 1.70868e-06 272.838 
-0.45 -0.05 -0.531758 2.68375 0.09744 0.0967803 -0.000319569 0.0971953 1.70911e-06 273.09 
-0.49 -0.03 0.0123532 2.08654 0.097377 0.0968163 -0.000508954 0.0971523 1.70822e-06 273.111 
-0.39 -0.07 -0.961632 3.41823 0.0975011 0.0967064 -0.000217335 0.0970263 1.70623e-06 273.075 
-0.43 -0.05 -0.986147 2.81874 0.0973731 0.0969355 -0.000243361 0.097186 1.70918e-06 273.053 
-0.47 -0.03 -0.0391602 2.2231 0.0974475 0.0969056 -0.000410106 0.0971156 1.70821e-06 273.01 
-0.27 -0.07 -2.70609 3.93028 0.097707 0.0968627 0.000159796 0.0972402 1.70895e-06 273.241 
-0.31 -0.05 -2.31249 3.80233 0.0976413 0.0967156 2.72386e-05 0.0971593 1.70958e-06 272.914 
-0.27 -0.09 -2.21093 3.49326 0.097604 0.0969582 0.000184194 0.0972834 1.70892e-06 273.367 
-0.31 -0.07 -1.98305 3.6259 0.097546 0.0967473 9.96024e-05 0.0972411 1.71008e-06 273.063 
-0.29 -0.07 -2.4253 3.86726 0.0975532 0.0967663 0.000123586 0.0971546 1.70617e-06 273.445 
-0.25 -0.07 -2.84264 3.2733 0.0976281 0.0971366 0.000131022 0.0973555 1.71068e-06 273.288 
-0.29 -0.05 -2.61424 4.08262 0.097715 0.0967209 4.20818e-05 0.0971645 1.70811e-06 273.163 
-0.27 -0.05 -2.55907 4.13814 0.0976841 0.0967932 9.32897e-05 0.0972231 1.70964e-06 273.083 
-0.31 -0.03 -2.37729 4.3918 0.0974448 0.0967861 -4.22419e-05 0.0971716 1.7125e-06 272.484 
-0.25 -0.05 -2.75606 3.57772 0.0976017 0.0969977 0.000258032 0.0972712 1.71238e-06 272.781 
-0.29 -0.03 -2.41405 4.13299 0.0974773 0.0966556 5.46432e-05 0.0970343 1.70788e-06 272.834 
-0.27 -0.03 -2.68486 4.0345 0.0974504 0.0966631 0.000111809 0.0971661 1.708e-06 273.185 
-0.31 -0.01 -2.26163 4.81182 0.097577 0.0967918 -2.76865e-05 0.0972308 1.71112e-06 272.869 
-0.25 -0.03 -2.79679 4.0633 0.0974297 0.0968725 0.000319146 0.0971648 1.71192e-06 272.557 
-0.29 -0.01 -2.53933 4.33908 0.0974104 0.0965139 0.000121699 0.0970064 1.70784e-06 272.762 
-0.27 -0.01 -2.75495 4.20314 0.0972717 0.0965347 0.000156952 0.0971033 1.70842e-06 272.942 
-0.33 -0.25 -0.994514 1.58823 0.0977698 0.0970989 3.39703e-05 0.0973704 1.71317e-06 272.933 
-0.31 -0.25 -1.40802 1.38971 0.0977708 0.0972332 -1.62018e-05 0.0975271 1.71579e-06 272.956 
-0.29 -0.25 -1.74132 2.06853 0.0975858 0.0969542 0.000146718 0.0973268 1.71215e-06 272.974 
-0.27 -0.25 -2.16396 2.08726 0.0976736 0.0971754 0.000214581 0.0974555 1.71418e-06 273.012 
-0.29 -0.11 -2.39959 3.3789 0.0977132 0.0968821 6.54412e-05 0.097297 1.71176e-06 272.953 
-0.27 -0.11 -2.74178 3.23378 0.0974353 0.0969402 0.000196221 0.0972093 1.70756e-06 273.376 
-0.31 -0.09 -1.85356 3.37745 0.0975373 0.0969047 3.73021e-05 0.0973059 1.71106e-06 273.089 
-0.29 -0.09 -1.81871 3.72078 0.0974877 0.0967362 0.000152227 0.0971021 1.70636e-06 273.267 
-0.31 -0.23 -1.70776 1.89901 0.097461 0.0971072 0.000127525 0.0973507 1.71311e-06 272.888 
-0.29 -0.23 -2.10693 2.2082 0.0976263 0.0969052 8.47032e-05 0.0972798 1.71122e-06 272.99 
-0.27 -0.23 -1.88128 2.34151 0.0977429 0.0972378 6.75125e-05 0.097503 1.71326e-06 273.291 
-0.31 -0.21 -1.71097 2.09886 0.0977923 0.0971102 2.65636e-05 0.0973883 1.71311e-06 272.993 
-0.29 -0.21 -1.68434 2.18446 0.0976805 0.0968652 -9.05118e-06 0.0973533 1.71282e-06 272.941 
-0.27 -0.21 -1.7615 2.44762 0.0976322 0.0970777 0.000128059 0.0973946 1.71243e-06 273.119 
-0.31 -0.19 -1.4695 2.49262 0.0976871 0.0970732 2.57269e-05 0.0972921 1.71069e-06 273.11 
-0.25 -0.21 -2.11321 2.22487 0.0977831 0.0970999 0.000158995 0.0973655 1.71101e-06 273.264 
-0.29 -0.19 -1.65446 2.21891 0.0976403 0.0968345 9.45746e-05 0.0972972 1.71128e-06 273.029 
-0.27 -0.19 -1.91873 2.52158 0.0975914 0.0970741 0.000110496 0.0973917 1.71206e-06 273.17 
-0.31 -0.17 -1.89356 2.64606 0.0975529 0.0969945 4.71629e-05 0.0972487 1.71067e-06 272.991 
-0.25 -0.19 -2.1391 2.66847 0.0974656 0.0970088 0.000168787 0.097258 1.71328e-06 272.6 
-0.29 -0.17 -2.01363 2.56519 0.0974604 0.0966719 0.000171847 0.0971668 1.70769e-06 273.237 
-0.27 -0.17 -2.40676 2.8951 0.0975455 0.09716 0.000133377 0.0974075 1.71247e-06 273.149 
-0.31 -0.15 -1.86021 2.79064 0.0975849 0.0969101 8.77819e-05 0.0972648 1.71168e-06 272.875 
-0.25 -0.17 -2.70981 2.70296 0.0975219 0.0969872 0.000122527 0.0971792 1.71041e-06 272.837 
-0.29 -0.15 -2.12948 2.78909 0.0976523 0.096863 8.18247e-05 0.0973055 1.71016e-06 273.232 
-0.27 -0.15 -2.27946 3.16049 0.0975992 0.0970135 0.000203725 0.0973348 1.71146e-06 273.107 
-0.31 -0.13 -2.13356 3.09433 0.0974679 0.0968757 0.000230602 0.0972344 1.70969e-06 273.107 
-0.25 -0.15 -2.31439 2.79266 0.0975427 0.0970623 0.000192995 0.0972283 1.71017e-06 273.013 
-0.29 -0.13 -2.3144 3.22155 0.0973953 0.0968585 0.000142622 0.0971469 1.70953e-06 272.887 
-0.27 -0.13 -2.44251 2.86884 0.0974795 0.0968975 5.25262e-05 0.0971086 1.70707e-06 273.172 
-0.31 -0.11 -1.99334 3.18551 0.0975849 0.096935 0.00012641 0.0972936 1.70997e-06 273.228 
-0.25 -0.13 -2.47638 3.01235 0.0976704 0.0970348 0.00022524 0.0973458 1.71099e-06 273.212 
-0.25 -0.23 -2.07636 1.85667 0.0975558 0.0971742 0.000157465 0.09736 1.71274e-06 272.972 
-0.25 -0.11 -2.84204 2.99212 0.0973871 0.0969875 0.000124919 0.0971277 1.70852e-06 272.995 
-0.25 -0.09 -2.60684 2.99436 0.0976496 0.0969723 0.000148851 0.0973999 1.7089e-06 273.698 
-0.25 -0.01 -3.08439 4.3672 0.0973343 0.0968926 0.000246034 0.0971094 1.71246e-06 272.315 
-0.23 -0.49 -0.609614 0.22872 0.0973866 0.0973847 0.000172141 0.0974585 1.71504e-06 272.883 
-0.21 -0.49 -0.825184 -0.25075 0.0973469 0.0970169 0.000162394 0.0972565 1.71118e-06 272.931 
-0.19 -0.49 -0.653121 -0.0312653 0.0973826 0.0973335 0.000239699 0.0973133 1.71232e-06 272.908 
-0.23 -0.47 -0.786525 -0.201047 0.0975276 0.0973934 0.000341898 0.0974438 1.7162e-06 272.657 
-0.17 -0.49 -0.458443 -0.238849 0.0972018 0.0974082 0.000277268 0.0973396 1.71213e-06 273.013 
-0.21 -0.47 -0.588849 -0.00116531 0.0973384 0.0970734 0.000199844 0.0972239 1.71011e-06 273.011 
-0.15 -0.49 -0.386549 0.0670581 0.0972901 0.0973703 0.000265704 0.0973449 1.71274e-06 272.93 