ITEM: TIMESTEP
863500
ITEM: NUMBER OF CELLS
2500
ITEM: BOX BOUNDS ss ss pp
-0.5 0.5
-0.5 0.5
-0.5 0.5
ITEM: CELLS xc yc f_U[*] f_V[*] f_Tau[1] f_Tau[2] f_Tau[3] f_Press[*] f_Mrho[*] f_Ttra[*] 
-0.49 -0.49 -0.0946153 0.0292208 0.097264 0.0970694 -1.57702e-05 0.0972147 1.70953e-06 273.077 
-0.47 -0.49 -0.153201 -0.0598332 0.097342 0.0974779 -4.54675e-05 0.0974583 1.71526e-06 272.847 
-0.45 -0.49 0.0158378 -0.128451 0.0974435 0.0973392 4.4047e-05 0.0974862 1.71536e-06 272.909 
-0.49 -0.47 0.0641934 0.0514556 0.0972214 0.097204 -0.000143601 0.09719 1.71127e-06 272.731 
-0.43 -0.49 -0.00135081 0.109947 0.0974512 0.0972604 4.36269e-06 0.0972851 1.71131e-06 272.991 
-0.47 -0.47 0.19182 -0.0925235 0.0973465 0.0973955 7.73638e-06 0.0973934 1.71263e-06 273.083 
-0.41 -0.49 -0.0366968 0.136617 0.0974568 0.0973768 7.29261e-05 0.0974361 1.71437e-06 272.926 
-0.45 -0.47 -0.0788839 -0.0754149 0.0973045 0.0972038 -1.07291e-05 0.097366 1.71447e-06 272.713 
-0.49 -0.45 -0.050895 -0.0822156 0.0974082 0.0972589 -5.92227e-05 0.0972695 1.71064e-06 273.054 
-0.39 -0.49 -0.29952 -0.000366865 0.0973836 0.097307 4.00443e-05 0.0974632 1.71671e-06 272.631 
-0.43 -0.47 -0.0630176 0.175863 0.0972742 0.0973247 5.46248e-05 0.0972904 1.71218e-06 272.867 
-0.47 -0.45 0.120561 -0.176851 0.0972658 0.097349 -0.000168826 0.0973107 1.71255e-06 272.865 
-0.37 -0.49 -0.279561 -0.0279654 0.0973588 0.0973659 0.000178956 0.0975041 1.71473e-06 273.059 
-0.41 -0.47 -0.388426 0.251499 0.0974083 0.0973611 2.8052e-06 0.0974769 1.71358e-06 273.167 
-0.45 -0.45 0.0883185 0.481937 0.0972387 0.0970704 0.000123112 0.0972479 1.71389e-06 272.475 
-0.49 -0.43 -0.0248515 -0.0339746 0.097374 0.0973118 0.000123317 0.0973895 1.71335e-06 272.959 
-0.35 -0.49 -0.432164 0.251919 0.0973628 0.0974148 3.03474e-05 0.097551 1.71663e-06 272.889 
-0.39 -0.47 -0.219491 0.0729326 0.09751 0.097296 0.000159837 0.0974506 1.71212e-06 273.325 
-0.43 -0.45 -0.465516 0.111161 0.0972502 0.0975344 -5.65358e-05 0.0975117 1.71618e-06 272.85 
-0.47 -0.43 -0.112259 -0.275115 0.097231 0.097311 3.55386e-05 0.0973111 1.71187e-06 272.974 
-0.37 -0.47 -0.317937 0.0596548 0.0975048 0.09738 5.83652e-05 0.0974525 1.71412e-06 273.012 
-0.41 -0.45 -0.170662 0.259212 0.0971437 0.0972014 -2.87518e-05 0.0971841 1.71158e-06 272.664 
-0.45 -0.43 -0.246273 0.747227 0.0972494 0.0972092 8.45817e-05 0.097365 1.71429e-06 272.74 
-0.49 -0.41 0.180172 -0.0722081 0.097227 0.0973408 0.000131256 0.097297 1.71413e-06 272.575 
-0.35 -0.47 -0.460571 0.388586 0.0975147 0.0974626 0.000112174 0.0974259 1.71369e-06 273.007 
-0.39 -0.45 -0.315975 0.133695 0.0971468 0.0972132 -7.4462e-06 0.0971489 1.70849e-06 273.058 
-0.43 -0.43 -0.44797 0.322928 0.0974385 0.0973643 -8.16542e-05 0.0975301 1.71408e-06 273.236 
-0.47 -0.41 0.00989026 0.204745 0.097332 0.0972871 -5.21094e-06 0.0972904 1.71398e-06 272.581 
-0.37 -0.45 -0.532858 0.243842 0.0973026 0.0974048 8.69435e-06 0.0974136 1.71433e-06 272.87 
-0.41 -0.43 -0.521465 0.269321 0.0974196 0.0971997 -5.05796e-05 0.0973816 1.71253e-06 273.068 
-0.45 -0.41 -0.272213 0.443474 0.0974598 0.0973641 -7.62352e-07 0.0975082 1.71543e-06 272.96 
-0.49 -0.39 -0.150218 0.0666308 0.0975218 0.0974276 4.22673e-05 0.0975101 1.71466e-06 273.088 
-0.35 -0.45 -0.588768 0.344586 0.0972609 0.0973162 0.000135741 0.0972655 1.7123e-06 272.778 
-0.39 -0.43 -0.26261 -0.0410245 0.0973452 0.0972931 3.53505e-05 0.0973109 1.71251e-06 272.871 
-0.43 -0.41 -0.0169372 0.680214 0.097347 0.0973664 1.68676e-05 0.0974161 1.71411e-06 272.913 
-0.47 -0.39 -0.24376 0.292213 0.0974638 0.0973158 8.02714e-06 0.0973309 1.71396e-06 272.696 
-0.33 -0.45 -0.582034 0.303255 0.0974102 0.0973033 0.000121808 0.0972734 1.71312e-06 272.67 
-0.37 -0.43 -0.584181 0.576212 0.0974367 0.0972983 2.90033e-05 0.0973684 1.71357e-06 272.865 
-0.41 -0.41 -0.416749 0.21682 0.0972301 0.097095 6.51586e-05 0.0973066 1.71266e-06 272.835 
-0.45 -0.39 -0.240958 0.465826 0.0976129 0.0973306 -7.48485e-05 0.0974125 1.71571e-06 272.648 
-0.35 -0.43 -0.538991 0.320825 0.097387 0.0974186 0.000116155 0.0974392 1.71242e-06 273.246 
-0.39 -0.41 -0.688627 0.352062 0.097415 0.0973561 -3.95087e-05 0.0974451 1.71417e-06 272.983 
-0.43 -0.39 -0.150774 0.712518 0.0976925 0.0973423 4.35233e-05 0.097559 1.71745e-06 272.781 
-0.37 -0.41 -0.62479 0.43804 0.0972008 0.0970968 5.41957e-05 0.0972208 1.70846e-06 273.265 
-0.41 -0.39 -0.22712 0.371431 0.0976183 0.0972364 4.01969e-05 0.0975019 1.71335e-06 273.273 
-0.35 -0.41 -0.621637 0.189546 0.09734 0.0974067 -1.40247e-05 0.0973804 1.71277e-06 273.026 
-0.39 -0.39 -0.59041 0.614699 0.0974972 0.0972803 2.44259e-05 0.0974529 1.7134e-06 273.127 
-0.33 -0.41 -0.313864 0.352476 0.0973657 0.097445 1.50984e-05 0.0973826 1.71247e-06 273.08 
-0.37 -0.39 -0.442555 0.159262 0.0974608 0.0972004 3.37456e-05 0.0974017 1.71164e-06 273.265 
-0.35 -0.39 -0.126009 0.188016 0.0973619 0.0973313 6.39828e-05 0.097411 1.71199e-06 273.236 
-0.33 -0.39 -0.464721 0.416898 0.0974564 0.0973829 3.68074e-05 0.0973907 1.71456e-06 272.768 
-0.37 -0.37 -0.501659 0.0955526 0.0976215 0.0972602 6.24082e-05 0.0973549 1.71131e-06 273.186 
-0.49 -0.37 -0.0418063 0.0609283 0.0974895 0.0974489 -9.81449e-05 0.0974978 1.71485e-06 273.022 
-0.47 -0.37 -0.00735862 0.458766 0.097585 0.0973727 -9.34372e-05 0.0974962 1.71459e-06 273.06 
-0.45 -0.37 -0.0762955 0.482113 0.0974818 0.097126 -6.58698e-05 0.0972806 1.7135e-06 272.63 
-0.49 -0.35 -0.155492 0.4301 0.097517 0.0974151 -6.76738e-05 0.0975792 1.71293e-06 273.557 
-0.43 -0.37 -0.313837 0.831263 0.0974929 0.0971587 5.63403e-05 0.0973768 1.714e-06 272.819 
-0.47 -0.35 -0.376179 0.276114 0.097461 0.0973061 -1.93088e-06 0.0973926 1.71209e-06 273.168 
-0.45 -0.35 -0.191027 0.579043 0.0976007 0.0972532 -7.37894e-05 0.0974331 1.71235e-06 273.24 
-0.49 -0.33 -0.064663 0.524923 0.0974707 0.0972886 -0.000170497 0.0974627 1.71491e-06 272.915 
-0.39 -0.37 -0.316354 0.527866 0.09761 0.0972103 -1.92629e-05 0.097471 1.71153e-06 273.477 
-0.43 -0.35 -0.149755 0.935905 0.0975473 0.097071 -3.55739e-05 0.0973495 1.70999e-06 273.382 
-0.47 -0.33 0.109177 0.323603 0.0974374 0.097289 -0.000107935 0.0973711 1.71237e-06 273.064 
-0.41 -0.35 -0.13502 0.602328 0.0975452 0.0973305 4.58577e-05 0.097537 1.71421e-06 273.235 
-0.45 -0.33 -0.0341493 0.540398 0.0974401 0.0973746 -7.43668e-05 0.0974898 1.7145e-06 273.056 
-0.49 -0.31 0.0744545 0.557086 0.0973233 0.0971914 -0.000117104 0.0972567 1.71122e-06 272.925 
-0.39 -0.35 -0.224757 0.590769 0.0976417 0.0971605 3.66616e-05 0.0974755 1.71263e-06 273.314 
-0.43 -0.33 -0.0452895 0.868998 0.0973833 0.0968779 -7.61695e-05 0.0972256 1.71175e-06 272.753 
-0.47 -0.31 -0.278069 0.257322 0.0974085 0.0972029 -8.70507e-05 0.0973475 1.70863e-06 273.594 
-0.37 -0.35 -0.23976 0.370373 0.097663 0.0972171 0.000129615 0.0974171 1.71276e-06 273.129 
-0.41 -0.33 -0.201327 0.719085 0.0974622 0.0973859 -4.98494e-05 0.0974173 1.71195e-06 273.26 
-0.45 -0.31 -0.133361 0.533463 0.0974677 0.0973637 2.5452e-05 0.0974422 1.71278e-06 273.196 
-0.49 -0.29 0.00230204 0.503308 0.0975764 0.0972736 -7.79817e-05 0.097475 1.7141e-06 273.078 
-0.35 -0.35 -0.736057 0.570064 0.0975455 0.0974193 -2.31558e-05 0.0975092 1.71554e-06 272.944 
-0.39 -0.33 -0.216066 0.687009 0.0974944 0.0970197 -1.8041e-05 0.0973205 1.71016e-06 273.274 
-0.43 -0.31 -0.159824 0.856713 0.0973768 0.09711 -0.000121732 0.097203 1.71014e-06 272.947 
-0.47 -0.29 -0.037933 0.698006 0.0975634 0.097119 -0.000156852 0.0973561 1.71014e-06 273.377 
-0.37 -0.33 -0.597856 0.751668 0.0975699 0.0972437 2.10954e-05 0.0974544 1.71375e-06 273.076 
-0.41 -0.31 -0.173525 0.895981 0.0973753 0.0972816 -0.000166772 0.0972873 1.71155e-06 272.959 
-0.45 -0.29 -0.302337 0.556434 0.0975948 0.0974053 -2.28035e-05 0.0975104 1.7129e-06 273.369 
-0.49 -0.27 -0.0387716 0.676732 0.0974955 0.0973804 -0.000141878 0.0973714 1.71138e-06 273.222 
-0.35 -0.33 -0.923034 0.926963 0.0977806 0.0974295 0.000186165 0.097607 1.71426e-06 273.423 
-0.39 -0.31 -0.344421 0.8276 0.0975091 0.0970911 4.41345e-05 0.0973792 1.71022e-06 273.429 
-0.43 -0.29 -0.537404 0.693282 0.0976716 0.0972626 -3.92832e-05 0.0975662 1.71422e-06 273.314 
-0.47 -0.27 -0.13543 0.448802 0.0975312 0.0971104 -0.000191187 0.097282 1.7112e-06 273 
-0.33 -0.33 -1.03055 0.815009 0.0976658 0.0972925 0.00014475 0.0975257 1.71435e-06 273.18 
-0.37 -0.31 -0.767828 1.32928 0.0975046 0.0970964 -7.03296e-05 0.0973184 1.71158e-06 273.042 
-0.41 -0.29 -0.595905 1.20319 0.0975599 0.0971656 -8.12267e-05 0.0974502 1.71365e-06 273.08 
-0.45 -0.27 0.0292525 1.05155 0.097612 0.0971998 -9.29942e-05 0.0975002 1.71286e-06 273.346 
-0.35 -0.31 -1.05472 0.961706 0.0973595 0.0972859 0.00014485 0.0973154 1.70928e-06 273.4 
-0.39 -0.29 -0.763778 0.829258 0.0973668 0.0970089 -0.000149702 0.0972339 1.71075e-06 272.937 
-0.43 -0.27 -0.277577 1.00709 0.097594 0.0972114 -5.91957e-05 0.0974768 1.71549e-06 272.863 
-0.37 -0.29 -0.473703 1.57481 0.097377 0.0969925 2.10374e-05 0.0971953 1.70937e-06 273.049 
-0.41 -0.27 -0.456625 1.00118 0.0975847 0.0972934 -7.65033e-05 0.0974513 1.71549e-06 272.791 
-0.35 -0.29 -0.848466 0.99658 0.0975974 0.097346 -1.01033e-05 0.0975111 1.71295e-06 273.363 
-0.39 -0.27 -0.408686 1.0269 0.0976881 0.0969626 -7.99933e-05 0.0974051 1.71463e-06 272.799 
-0.33 -0.29 -0.95923 1.56565 0.0975792 0.0970804 0.000168007 0.097361 1.71119e-06 273.223 
-0.37 -0.27 -0.725493 1.59416 0.0976528 0.0969534 -7.00551e-05 0.0973686 1.71316e-06 272.93 
-0.35 -0.27 -1.045 1.5452 0.0976659 0.0971553 -2.69894e-05 0.0974452 1.71543e-06 272.784 
-0.41 -0.37 -0.328922 0.676164 0.0975743 0.0972984 8.77243e-05 0.0974887 1.71294e-06 273.301 
-0.35 -0.37 -0.542916 0.215049 0.0976305 0.0973898 -2.49536e-06 0.0974989 1.71467e-06 273.055 
-0.45 -0.25 -0.352299 1.04673 0.0975568 0.097069 -0.000205861 0.0973812 1.7134e-06 272.927 
-0.37 -0.25 -0.785816 1.5391 0.0976136 0.0969082 -5.39335e-05 0.0972383 1.71354e-06 272.504 
-0.35 -0.25 -0.583171 1.7799 0.0976008 0.0969552 2.85494e-05 0.0973163 1.71481e-06 272.522 
-0.33 -0.49 -0.74132 -0.0124579 0.0973762 0.0973936 7.72627e-05 0.0973869 1.71417e-06 272.82 
-0.31 -0.49 -0.808857 0.0551237 0.097367 0.0971967 0.0001935 0.0972794 1.71026e-06 273.142 
-0.29 -0.49 -0.840138 -0.0847932 0.0975205 0.0974051 8.76604e-05 0.0974907 1.71487e-06 273 
-0.33 -0.47 -0.554772 0.167733 0.0974934 0.0972167 0.000104147 0.0973127 1.71389e-06 272.657 
-0.27 -0.49 -0.64511 0.123866 0.0976659 0.097398 0.00016974 0.0974722 1.71555e-06 272.84 
-0.31 -0.47 -0.661456 0.0134576 0.0974329 0.0974049 8.07493e-05 0.097415 1.71455e-06 272.838 
-0.29 -0.47 -0.743366 -0.00345513 0.097453 0.0973311 8.18971e-05 0.0973552 1.71265e-06 272.974 
-0.27 -0.47 -0.750395 0.0830361 0.0974002 0.0971678 6.46018e-05 0.0973106 1.71331e-06 272.743 
-0.31 -0.45 -0.487467 0.211601 0.0976326 0.0975307 5.76957e-05 0.0975343 1.7154e-06 273.038 
-0.29 -0.45 -0.471035 0.00305345 0.0975945 0.0973697 0.000120212 0.0975232 1.71493e-06 273.081 
-0.33 -0.43 -0.546552 0.414707 0.0973989 0.0973665 4.96709e-05 0.0974057 1.71268e-06 273.111 
-0.27 -0.45 -0.680774 0.00645616 0.0974047 0.097226 8.22941e-05 0.0972166 1.70894e-06 273.177 
-0.31 -0.43 -0.533986 0.113396 0.0973256 0.0973848 1.08956e-05 0.0972969 1.71199e-06 272.915 
-0.29 -0.43 -0.721413 0.210547 0.097316 0.0972287 0.000168001 0.0972794 1.7088e-06 273.375 
-0.27 -0.43 -0.647974 -0.197837 0.0974495 0.0971438 0.000271742 0.0972279 1.70831e-06 273.309 
-0.31 -0.41 -0.449818 0.359381 0.0973438 0.097155 0.000118104 0.0972089 1.70834e-06 273.252 
-0.29 -0.41 -0.693869 0.299341 0.0973979 0.0972385 0.000166993 0.0972881 1.70781e-06 273.559 
-0.27 -0.41 -0.870287 -0.226926 0.0973089 0.0972201 0.000174812 0.0971646 1.70838e-06 273.121 
-0.31 -0.39 -0.810244 0.663117 0.0975224 0.0971763 2.1907e-05 0.097262 1.71372e-06 272.543 
-0.29 -0.39 -0.7035 0.30275 0.0975059 0.0971974 0.000105233 0.0972972 1.71068e-06 273.126 
-0.33 -0.37 -0.673399 0.823487 0.0975829 0.0973608 2.02598e-05 0.0974525 1.71382e-06 273.06 
-0.27 -0.39 -0.920444 0.337322 0.097611 0.0973888 0.000169366 0.0974915 1.7148e-06 273.013 
-0.31 -0.37 -0.778229 0.613821 0.0974621 0.097185 6.34805e-05 0.0972502 1.71024e-06 273.064 
-0.29 -0.37 -0.965403 0.414311 0.0973675 0.0971474 0.000188399 0.0973164 1.71114e-06 273.105 
-0.33 -0.35 -0.870676 0.874808 0.0976611 0.0972712 6.54674e-05 0.0974408 1.71398e-06 273.002 
-0.27 -0.37 -1.28886 0.743072 0.097553 0.0972511 0.000102189 0.0974011 1.71278e-06 273.082 
-0.31 -0.35 -0.99174 0.915664 0.097677 0.0971251 0.000182136 0.0972964 1.71363e-06 272.652 
-0.29 -0.35 -1.2024 0.651584 0.0976979 0.0972086 0.000100211 0.0973872 1.71365e-06 272.904 
-0.27 -0.35 -1.48361 1.23325 0.097586 0.0972759 0.000152075 0.0974058 1.71616e-06 272.556 
-0.31 -0.33 -1.06176 0.994498 0.0975702 0.0969001 0.000107479 0.0972793 1.71333e-06 272.652 
-0.29 -0.33 -1.28308 0.905825 0.0974655 0.0971896 0.000225243 0.0974574 1.7136e-06 273.109 
-0.33 -0.31 -1.21072 0.987617 0.0975156 0.097263 0.000118338 0.0973789 1.7131e-06 272.968 
-0.27 -0.33 -1.52134 1.37685 0.0976175 0.0972818 0.000180983 0.0975178 1.71575e-06 272.936 
-0.31 -0.31 -1.15358 0.807956 0.0974397 0.0970235 0.000209265 0.0973586 1.7139e-06 272.785 
-0.29 -0.31 -1.31007 1.28305 0.0976602 0.0972369 5.16735e-05 0.0975265 1.71647e-06 272.845 
-0.27 -0.31 -1.45269 1.4771 0.0977741 0.0973113 0.000109889 0.0975499 1.71347e-06 273.389 
-0.31 -0.29 -1.50355 1.02483 0.0977065 0.0970996 0.000147835 0.0974399 1.71294e-06 273.165 
-0.29 -0.29 -1.54385 1.43847 0.097657 0.0972174 4.98577e-05 0.0974865 1.71552e-06 272.885 
-0.27 -0.29 -1.73034 1.31414 0.0976638 0.0973529 6.33979e-05 0.0975426 1.71331e-06 273.393 
-0.31 -0.27 -1.09196 1.44109 0.0976448 0.0971665 2.80302e-05 0.097424 1.7117e-06 273.319 
-0.25 -0.29 -1.79689 1.27577 0.0976247 0.0972016 0.000264494 0.0974705 1.71246e-06 273.327 
-0.29 -0.27 -1.36952 1.42573 0.0977622 0.0972552 5.04413e-06 0.0974985 1.71105e-06 273.632 
-0.27 -0.27 -1.72958 1.56746 0.0977005 0.0972191 0.000161801 0.0974904 1.71331e-06 273.247 
-0.25 -0.27 -1.99707 1.68263 0.0976659 0.0971013 0.000165703 0.0973253 1.7109e-06 273.168 
-0.33 -0.27 -1.30901 1.42955 0.0976609 0.0970416 0.000113324 0.0973033 1.71129e-06 273.045 
-0.25 -0.49 -0.855768 -0.174454 0.0974793 0.0976304 0.00023353 0.0976039 1.71729e-06 272.932 
-0.25 -0.47 -0.54285 0.169703 0.0976693 0.0976151 0.000231113 0.0975026 1.71543e-06 272.944 
-0.25 -0.45 -0.644171 0.146721 0.0971693 0.0973662 0.000207838 0.0971507 1.70596e-06 273.468 
-0.25 -0.37 -1.55798 0.731199 0.0975192 0.097271 0.000115385 0.0974656 1.7104e-06 273.643 
-0.25 -0.35 -1.55243 0.485426 0.0976351 0.0972236 0.000128069 0.0974344 1.71331e-06 273.09 
-0.25 -0.33 -1.64377 0.736362 0.0976279 0.0972074 6.95671e-05 0.0974844 1.71333e-06 273.227 
-0.25 -0.25 -2.37924 1.69857 0.0977992 0.0972337 5.57734e-05 0.0975866 1.71519e-06 273.218 
-0.49 -0.25 0.124255 0.549838 0.097758 0.0973218 -2.70797e-05 0.0975025 1.71268e-06 273.381 
-0.47 -0.25 -0.00842224 0.653095 0.097518 0.0970626 -0.000135041 0.0973182 1.71157e-06 273.043 
-0.49 -0.23 -0.179469 0.594741 0.097439 0.0971512 -0.000148144 0.0972477 1.7106e-06 273 
-0.47 -0.23 -0.0392963 0.782594 0.0976971 0.0972419 -0.000140562 0.0974043 1.71303e-06 273.051 
-0.45 -0.23 -0.0710702 1.18626 0.0976253 0.0970177 -0.000288225 0.0973185 1.71079e-06 273.167 
-0.49 -0.21 0.0759281 0.718721 0.0974823 0.0972383 -0.000236246 0.0975323 1.71366e-06 273.309 
-0.43 -0.23 -0.420675 1.12969 0.0977134 0.0971711 -0.000128332 0.0973288 1.71153e-06 273.079 
-0.47 -0.21 -0.0159741 0.67696 0.0973892 0.0973034 -9.95352e-05 0.0974956 1.71561e-06 272.895 
-0.41 -0.23 -0.544109 1.66164 0.0977042 0.0971731 -4.15494e-07 0.0974818 1.71589e-06 272.812 
-0.45 -0.21 -0.0868614 1.05516 0.0974886 0.0970917 -0.00023033 0.0973806 1.71409e-06 272.816 
-0.49 -0.19 -0.067325 0.802242 0.0975767 0.0971025 -0.000217821 0.0973294 1.71338e-06 272.785 
-0.39 -0.23 -0.606223 1.19262 0.0976058 0.0970483 2.23906e-05 0.0973169 1.7146e-06 272.556 
-0.43 -0.21 -0.440312 1.68042 0.0975075 0.0969422 -0.000160685 0.0972266 1.71121e-06 272.842 
-0.47 -0.19 -0.473594 0.90718 0.0976683 0.0973354 -0.000265337 0.0974997 1.71748e-06 272.61 
-0.41 -0.21 -0.534166 1.63596 0.0975464 0.0970857 -0.000117233 0.0973073 1.71205e-06 272.935 
-0.45 -0.19 -0.878054 1.4989 0.0975196 0.097131 -0.000215041 0.0973687 1.71348e-06 272.88 
-0.49 -0.17 -0.241507 1.03788 0.0973193 0.097053 -0.000222173 0.0972035 1.71159e-06 272.717 
-0.39 -0.21 -0.470919 1.33495 0.0977132 0.0969696 -1.00568e-05 0.0973389 1.70842e-06 273.604 
-0.43 -0.19 -0.540013 1.41502 0.0975095 0.0969524 -0.0001336 0.0972985 1.70869e-06 273.447 
-0.47 -0.17 -0.443729 1.17657 0.0974331 0.0972447 -0.000257737 0.0973796 1.71378e-06 272.862 
-0.41 -0.19 -0.334537 1.55113 0.0975636 0.0969485 -0.000149547 0.0973299 1.7116e-06 273.07 
-0.45 -0.17 -0.279476 1.38453 0.0976268 0.0971098 -0.000236659 0.0973839 1.71281e-06 273.029 
-0.49 -0.15 0.0892652 1.17023 0.0974528 0.0972267 -0.0003291 0.0973204 1.71616e-06 272.318 
-0.39 -0.19 -0.91241 1.87083 0.0977339 0.0970423 -0.000111336 0.0973148 1.70972e-06 273.328 
-0.43 -0.17 -0.396458 1.36422 0.0975914 0.0969868 -0.000210111 0.0973862 1.71004e-06 273.478 
-0.47 -0.15 -0.184506 1.37254 0.0975602 0.0972348 -0.000351612 0.0974394 1.71458e-06 272.902 
-0.41 -0.17 -0.825039 1.87341 0.0975984 0.0968822 -0.000223988 0.0972247 1.71011e-06 273.013 
-0.45 -0.15 -0.31214 1.36875 0.0974732 0.0970924 -0.000221166 0.0972824 1.71125e-06 272.993 
-0.39 -0.17 -1.08712 2.23422 0.0975184 0.0969211 -0.000133381 0.097245 1.70788e-06 273.426 
-0.43 -0.15 -0.479481 1.77748 0.0975292 0.0968242 -0.00013803 0.0971949 1.709e-06 273.107 
-0.41 -0.15 -0.968016 2.18397 0.0975144 0.0969255 -0.000190594 0.0972028 1.71023e-06 272.931 
-0.39 -0.15 -1.19076 2.36556 0.0975719 0.0967337 -0.000150573 0.0972056 1.70986e-06 272.999 
-0.43 -0.25 -0.141334 1.17371 0.0977172 0.0971384 -0.000115439 0.0975176 1.71288e-06 273.392 
-0.41 -0.25 -0.487003 1.38704 0.0976959 0.0973031 -8.01446e-05 0.0974708 1.71445e-06 273.011 
-0.39 -0.25 -0.663647 1.23771 0.0977014 0.0970078 -8.49038e-05 0.0973365 1.71411e-06 272.689 
-0.37 -0.23 -0.638577 1.80175 0.0975639 0.0969011 -6.96972e-06 0.0972834 1.71422e-06 272.523 
-0.35 -0.23 -1.1606 1.86287 0.0975914 0.0970529 -6.45391e-05 0.0973751 1.71643e-06 272.428 
-0.33 -0.23 -1.51244 2.00239 0.097474 0.0970543 -6.30283e-05 0.0972346 1.71017e-06 273.03 
-0.37 -0.21 -0.873997 2.27587 0.0978341 0.0969619 -3.45127e-05 0.0974087 1.71101e-06 273.386 
-0.35 -0.21 -1.24892 2.46043 0.0977523 0.0970892 -0.000109639 0.0973961 1.71297e-06 273.037 
-0.33 -0.21 -1.32474 2.14774 0.0977909 0.0970139 6.91121e-05 0.0973655 1.71353e-06 272.862 
-0.37 -0.19 -1.26659 2.34244 0.0977428 0.0969453 -7.26221e-05 0.097402 1.71222e-06 273.174 
-0.35 -0.19 -1.25386 2.57423 0.0975953 0.0968754 4.23816e-05 0.0972434 1.71318e-06 272.576 
-0.33 -0.19 -1.30987 2.26791 0.0975792 0.0969271 6.13522e-05 0.097261 1.70976e-06 273.171 
-0.37 -0.17 -1.05232 2.56425 0.0974794 0.0968901 -4.60804e-05 0.0972218 1.71027e-06 272.979 
-0.35 -0.17 -1.4985 2.64639 0.0975948 0.0969022 7.93233e-05 0.0972801 1.71104e-06 273.02 
-0.33 -0.17 -1.76956 2.47793 0.0976407 0.0970188 1.10297e-05 0.09736 1.71124e-06 273.212 
-0.37 -0.15 -1.30081 2.81533 0.0976513 0.096796 -7.1891e-05 0.0972104 1.70804e-06 273.304 
-0.35 -0.15 -1.5049 2.7989 0.0977127 0.0969757 -8.46301e-05 0.0973626 1.71125e-06 273.217 
-0.33 -0.15 -1.63144 2.68037 0.0976256 0.0969442 4.41147e-05 0.0971961 1.70953e-06 273.024 
-0.35 -0.13 -1.43103 2.99773 0.0976131 0.0967822 -8.21721e-05 0.0972125 1.71247e-06 272.603 
-0.33 -0.13 -1.82502 2.81079 0.0976015 0.0968754 0.000106052 0.0973054 1.71351e-06 272.698 
-0.33 -0.09 -1.78892 3.46724 0.0974508 0.0965162 5.21138e-05 0.0970145 1.70973e-06 272.483 
-0.37 -0.13 -1.72424 2.72135 0.097551 0.0968638 -0.000149524 0.0971419 1.7097e-06 272.846 
-0.37 -0.11 -1.66498 2.64359 0.0974883 0.0967328 -0.000163379 0.0970611 1.70813e-06 272.87 
-0.35 -0.11 -1.78464 3.08722 0.0973517 0.0967074 -4.64242e-05 0.0971106 1.70887e-06 272.89 
-0.33 -0.11 -1.82422 3.30401 0.0973223 0.0965652 0.000120357 0.0970365 1.7091e-06 272.646 
-0.35 -0.09 -1.42355 3.14034 0.0974016 0.0965925 1.37445e-05 0.0970158 1.70783e-06 272.79 
-0.49 -0.13 -0.0237869 1.34712 0.0974652 0.0972841 -0.000474924 0.0973037 1.7107e-06 273.14 
-0.47 -0.13 0.0642868 1.46859 0.0973987 0.0969567 -0.000341366 0.0972218 1.70928e-06 273.137 
-0.45 -0.13 -0.116057 1.48464 0.0975273 0.0970962 -0.000216981 0.0972533 1.71256e-06 272.702 
-0.49 -0.11 0.0668224 1.16992 0.0975614 0.0972307 -0.00037825 0.0973856 1.71302e-06 272.999 
-0.43 -0.13 -0.740406 2.22478 0.097524 0.0967326 -0.000266756 0.0971603 1.709e-06 273.01 
-0.47 -0.11 -0.0259795 1.53043 0.0975567 0.0969496 -0.000313245 0.0972787 1.71152e-06 272.939 
-0.41 -0.13 -1.07992 2.68183 0.0975782 0.0969927 -0.000243135 0.0972732 1.7121e-06 272.832 
-0.45 -0.11 -0.547673 2.18152 0.0974667 0.0970001 -0.000271374 0.0972797 1.7103e-06 273.137 
-0.49 -0.09 -0.0885157 1.14578 0.0975165 0.0971875 -0.000275276 0.0973443 1.71323e-06 272.851 
-0.39 -0.13 -1.6021 2.5704 0.0976174 0.0967873 -0.000142791 0.0972285 1.71125e-06 272.842 
-0.43 -0.11 -0.752387 2.57124 0.0974111 0.0967584 -0.000297715 0.0971918 1.70841e-06 273.193 
-0.47 -0.09 -0.480372 2.06188 0.0974729 0.0969631 -0.000378971 0.0971787 1.70877e-06 273.097 
-0.41 -0.11 -1.07645 3.05482 0.0974765 0.0968851 -0.00028219 0.0972069 1.70942e-06 273.072 
-0.45 -0.09 -0.481846 2.22979 0.0974811 0.0968819 -0.000249895 0.0972955 1.71052e-06 273.146 
-0.39 -0.11 -1.29559 2.99118 0.0974423 0.0968099 -5.91188e-05 0.0971649 1.7086e-06 273.086 
-0.43 -0.09 -0.555983 2.81007 0.0976438 0.0969984 -0.000319705 0.0972959 1.70907e-06 273.379 
-0.41 -0.09 -0.855678 3.36431 0.0974305 0.0965744 -0.000213438 0.0969925 1.70632e-06 272.966 
-0.39 -0.09 -0.982994 2.95781 0.0975342 0.0967458 -0.000140757 0.0970817 1.70926e-06 272.747 
-0.37 -0.09 -1.14271 3.31834 0.0974603 0.0967499 -8.8565e-05 0.0970306 1.70755e-06 272.877 
-0.35 -0.03 -1.81279 4.31669 0.097513 0.0964446 -0.000104822 0.0970475 1.70521e-06 273.298 
-0.37 -0.07 -1.18332 3.25637 0.0974338 0.0966103 -4.71028e-05 0.0970812 1.70839e-06 272.885 
-0.41 -0.05 -0.917851 3.53405 0.0973216 0.0965438 -0.000284161 0.0968817 1.70487e-06 272.886 
-0.45 -0.03 -0.451479 3.05233 0.0973202 0.0965426 -0.000345336 0.0970252 1.70616e-06 273.083 
-0.35 -0.07 -1.6077 3.53091 0.0976094 0.0964979 -5.40793e-06 0.0971314 1.70754e-06 273.162 
-0.39 -0.05 -0.715671 3.55455 0.0974083 0.0965991 -0.000256145 0.0970204 1.70978e-06 272.492 
-0.43 -0.03 -0.67542 3.32574 0.0975367 0.096918 -0.000228706 0.0972435 1.70902e-06 273.239 
-0.33 -0.07 -1.67342 3.65187 0.0976023 0.0965505 1.61924e-05 0.0971547 1.70918e-06 272.965 
-0.37 -0.05 -1.21859 3.69823 0.0974133 0.0966365 -0.000131552 0.0970317 1.70836e-06 272.749 
-0.41 -0.03 -1.00223 3.41852 0.097502 0.0966594 -0.000225906 0.0970909 1.70664e-06 273.191 
-0.35 -0.05 -1.48647 3.9101 0.0973387 0.0963085 -2.8843e-05 0.0968472 1.70585e-06 272.632 
-0.39 -0.03 -1.39407 3.61645 0.0973818 0.0965014 -0.000144009 0.0968562 1.70774e-06 272.356 
-0.33 -0.05 -2.12469 4.2368 0.0975529 0.0965479 4.26018e-05 0.0971112 1.71032e-06 272.66 
-0.37 -0.03 -1.17538 4.04958 0.0973954 0.0964538 -0.000198776 0.0969164 1.70757e-06 272.552 
-0.33 -0.03 -1.91768 4.3639 0.097446 0.0964458 7.88571e-06 0.0970016 1.70607e-06 273.031 
-0.33 -0.01 -2.01549 4.30608 0.0975302 0.0963561 -0.000125215 0.0969122 1.70426e-06 273.069 
-0.49 -0.07 -0.210017 1.43879 0.097339 0.097086 -0.00041976 0.0971468 1.70894e-06 272.981 
-0.47 -0.07 -0.451895 2.21995 0.0973683 0.096829 -0.000282299 0.0971424 1.70847e-06 273.044 
-0.45 -0.07 -0.534921 2.23971 0.0973961 0.0968787 -0.000399138 0.0970761 1.70847e-06 272.856 
-0.49 -0.05 -0.182883 1.88194 0.0973276 0.0969003 -0.000474634 0.097026 1.70621e-06 273.078 
-0.43 -0.07 -0.568122 2.95916 0.097419 0.0969069 -0.000281951 0.0971489 1.70814e-06 273.114 
-0.47 -0.05 -0.134506 2.23528 0.0974677 0.0969451 -0.00042662 0.0972536 1.711e-06 272.952 
-0.41 -0.07 -0.660936 3.64001 0.0975808 0.0966003 -0.000213102 0.0970366 1.70846e-06 272.748 
-0.45 -0.05 -0.526354 2.58856 0.0974504 0.0967874 -0.000304762 0.0971938 1.70884e-06 273.129 
-0.49 -0.03 0.0377515 2.06129 0.0974228 0.0968201 -0.000547913 0.0971679 1.70809e-06 273.176 
-0.39 -0.07 -0.844604 3.50728 0.0974841 0.0966716 -0.000211897 0.0970019 1.70634e-06 272.988 
-0.43 -0.05 -0.966903 2.9383 0.0973939 0.0969467 -0.000244884 0.0972172 1.70962e-06 273.071 
-0.47 -0.03 -0.00707468 2.28235 0.0974742 0.0969303 -0.000421843 0.0971321 1.70816e-06 273.065 
-0.27 -0.07 -2.78322 3.99686 0.0977086 0.0969009 0.000182004 0.0972429 1.70846e-06 273.327 
-0.31 -0.05 -2.36586 3.85755 0.0976625 0.09671 6.30394e-05 0.0971688 1.70942e-06 272.966 
-0.27 -0.09 -2.20638 3.49789 0.0976244 0.0969836 0.000186672 0.0973062 1.70853e-06 273.494 
-0.31 -0.07 -2.01329 3.56969 0.097543 0.0967484 0.000112687 0.0972468 1.70985e-06 273.116 
-0.29 -0.07 -2.51432 3.89931 0.0975436 0.0967439 0.000111192 0.0971178 1.70608e-06 273.357 
-0.25 -0.07 -2.87799 3.26311 0.0976502 0.0971534 0.00015766 0.0973898 1.71083e-06 273.362 
-0.29 -0.05 -2.66201 4.07141 0.0977221 0.0967287 6.97904e-05 0.097139 1.70775e-06 273.15 
-0.27 -0.05 -2.58734 4.12235 0.0976396 0.0968043 0.000108431 0.0972034 1.70953e-06 273.046 
-0.31 -0.03 -2.4527 4.4503 0.0974558 0.0967604 -4.61518e-05 0.0971599 1.71236e-06 272.473 
-0.25 -0.05 -2.804 3.52727 0.0975751 0.0970261 0.000247985 0.0972765 1.71217e-06 272.83 
-0.29 -0.03 -2.473 4.09639 0.0974601 0.0966199 7.88239e-05 0.097018 1.708e-06 272.769 
-0.27 -0.03 -2.66192 4.02958 0.0974855 0.0966985 0.000103249 0.0971607 1.70765e-06 273.226 
-0.31 -0.01 -2.1819 4.83729 0.0975617 0.0967168 -2.49983e-05 0.0971829 1.71014e-06 272.891 
-0.25 -0.03 -2.76288 3.99108 0.0974382 0.0968938 0.000315913 0.0971871 1.71162e-06 272.666 
-0.29 -0.01 -2.4841 4.31086 0.0974441 0.0964765 0.000115409 0.0970011 1.70738e-06 272.82 
-0.27 -0.01 -2.76669 4.24896 0.0972802 0.0965672 0.000151457 0.0971118 1.70878e-06 272.908 
-0.33 -0.25 -0.906526 1.5349 0.0977952 0.0971251 5.09347e-05 0.0973988 1.71343e-06 272.971 
-0.31 -0.25 -1.32164 1.39775 0.0977931 0.0972226 -5.3607e-06 0.0975312 1.71536e-06 273.035 
-0.29 -0.25 -1.71218 2.115 0.0975939 0.0970278 0.000137404 0.0973513 1.7125e-06 272.987 
-0.27 -0.25 -2.08931 2.11682 0.0976435 0.0972287 0.000199476 0.0974653 1.71441e-06 273.002 
-0.29 -0.11 -2.40428 3.43624 0.0977115 0.0969157 8.83496e-05 0.0973218 1.71193e-06 272.995 
-0.27 -0.11 -2.8231 3.25146 0.0974567 0.097011 0.000197186 0.0972479 1.70792e-06 273.428 
-0.31 -0.09 -1.84829 3.34692 0.0975434 0.0968834 2.13874e-05 0.0973026 1.71107e-06 273.078 
-0.29 -0.09 -1.7738 3.80203 0.0975033 0.0967536 0.000154219 0.0971145 1.70614e-06 273.338 
-0.31 -0.23 -1.73131 1.98239 0.09746 0.0970957 0.000117868 0.0973435 1.71309e-06 272.871 
-0.29 -0.23 -2.18075 2.25641 0.0976099 0.0969665 9.36445e-05 0.0972958 1.71174e-06 272.953 
-0.27 -0.23 -1.90821 2.32151 0.097727 0.097307 6.77702e-05 0.0975151 1.71379e-06 273.24 
-0.31 -0.21 -1.71634 2.16675 0.0977896 0.0971717 4.59459e-05 0.0973802 1.71308e-06 272.975 
-0.29 -0.21 -1.63271 2.31058 0.097675 0.096915 -1.61628e-05 0.0973617 1.71256e-06 273.007 
-0.27 -0.21 -1.74571 2.40765 0.0976479 0.0971566 0.000128564 0.0974336 1.71291e-06 273.152 
-0.31 -0.19 -1.41109 2.55756 0.0977168 0.0971637 4.4829e-05 0.0973428 1.71125e-06 273.162 
-0.25 -0.21 -2.0859 2.19215 0.0978159 0.0970992 0.000146605 0.0973835 1.71163e-06 273.216 
-0.29 -0.19 -1.6498 2.27789 0.0976401 0.0968847 8.54313e-05 0.0973342 1.71197e-06 273.023 
-0.27 -0.19 -1.86875 2.52167 0.0976047 0.0971493 0.000120449 0.0974326 1.71228e-06 273.25 
-0.31 -0.17 -1.94474 2.71538 0.0975652 0.097058 4.32344e-05 0.097276 1.71043e-06 273.105 
-0.25 -0.19 -2.13318 2.65037 0.0974531 0.0970005 0.000173952 0.0972841 1.71419e-06 272.529 
-0.29 -0.17 -1.97308 2.54132 0.0974693 0.096735 0.000187219 0.0971891 1.70784e-06 273.276 
-0.27 -0.17 -2.30376 2.91116 0.0975626 0.0972101 0.000148703 0.0974195 1.71286e-06 273.12 
-0.31 -0.15 -1.83591 2.84251 0.0976002 0.0969225 0.000104861 0.097282 1.71139e-06 272.969 
-0.25 -0.17 -2.66951 2.72614 0.0975567 0.0969798 0.00012672 0.0972094 1.71091e-06 272.841 
-0.29 -0.15 -2.17735 2.69884 0.0976745 0.0969103 8.90882e-05 0.0973145 1.70962e-06 273.343 
-0.27 -0.15 -2.32146 3.16126 0.0976146 0.0970749 0.000222308 0.0973856 1.71163e-06 273.221 
-0.31 -0.13 -2.15126 3.09729 0.0975032 0.0968985 0.000256528 0.0972782 1.7098e-06 273.212 
-0.25 -0.15 -2.36918 2.80011 0.0975523 0.0971012 0.000206727 0.0972793 1.71005e-06 273.175 
-0.29 -0.13 -2.31869 3.19028 0.0973758 0.0968619 0.000174564 0.0971425 1.70878e-06 272.995 
-0.27 -0.13 -2.46997 2.86782 0.09747 0.0969601 8.25911e-05 0.0971467 1.7074e-06 273.227 
-0.31 -0.11 -2.01132 3.16292 0.0975427 0.0969249 0.000152071 0.0972621 1.70959e-06 273.201 
-0.25 -0.13 -2.42847 3.04384 0.0976668 0.0970458 0.000249648 0.0973698 1.71156e-06 273.188 
-0.25 -0.23 -2.02625 1.80855 0.0975389 0.0971648 0.000192317 0.0973537 1.713e-06 272.914 
-0.25 -0.11 -2.84111 2.9866 0.0974364 0.0969677 0.000153806 0.0971634 1.70884e-06 273.043 
-0.25 -0.09 -2.56583 2.99768 0.0976311 0.0969566 0.000169919 0.0973858 1.708e-06 273.803 
-0.25 -0.01 -3.03057 4.28143 0.0973303 0.0968795 0.000250479 0.0971029 1.71264e-06 272.268 
-0.23 -0.49 -0.669235 0.230423 0.0973888 0.0973847 0.000155505 0.0974534 1.71491e-06 272.889 
-0.21 -0.49 -0.832903 -0.273361 0.0973717 0.0970796 0.000147269 0.0973146 1.71126e-06 273.081 
-0.19 -0.49 -0.668021 -0.0386509 0.0973659 0.0973171 0.000260657 0.0973102 1.71222e-06 272.917 
-0.23 -0.47 -0.811826 -0.294801 0.0975499 0.0974211 0.000313658 0.0974668 1.71638e-06 272.692 
-0.17 -0.49 -0.51803 -0.205308 0.0971814 0.0973841 0.000287484 0.0973022 1.71114e-06 273.066 
-0.21 -0.47 -0.604726 0.0174242 0.0973036 0.0970443 0.000204548 0.0971901 1.7094e-06 273.029 
-0.15 -0.49 -0.414214 0.0371654 0.0972904 0.0973668 0.000237588 0.0973505 1.7126e-06 272.969 
-0.19 -0.47 -0.938456 0.00377389 0.0973488 0.0971752 0.00024716 0.0971766 1.7093e-06 273.007 