ITEM: TIMESTEP
822000
ITEM: NUMBER OF CELLS
2500
ITEM: BOX BOUNDS ss ss pp
-0.5 0.5
-0.5 0.5
-0.5 0.5
ITEM: CELLS xc yc f_U[*] f_V[*] f_Tau[1] f_Tau[2] f_Tau[3] f_Press[*] f_Mrho[*] f_Ttra[*] 
-0.49 -0.49 -0.100943 -0.0306962 0.0970919 0.0971928 -8.58955e-05 0.097274 1.70992e-06 273.181 
-0.47 -0.49 0.0342726 -0.129935 0.0971427 0.0975648 -0.000151754 0.0975627 1.71695e-06 272.87 
-0.45 -0.49 0.637225 -0.226987 0.0973742 0.0973332 6.09914e-05 0.0973854 1.71343e-06 272.934 
-0.49 -0.47 0.0184118 -0.0519416 0.0971243 0.097272 -0.00022404 0.0972452 1.71506e-06 272.282 
-0.43 -0.49 0.554098 0.16906 0.0972136 0.0973771 0.000289592 0.0970707 1.7099e-06 272.614 
-0.47 -0.47 0.159575 -0.350363 0.0970868 0.0975459 3.31035e-05 0.0974248 1.71639e-06 272.574 
-0.41 -0.49 0.116394 0.24925 0.0971984 0.0974305 6.51594e-05 0.0972335 1.71417e-06 272.391 
-0.45 -0.47 -0.21822 -0.319699 0.0968244 0.0971296 -8.10961e-05 0.0972192 1.7119e-06 272.711 
-0.49 -0.45 -0.113569 -0.231175 0.0973954 0.097275 -0.000249834 0.0972824 1.71269e-06 272.763 
-0.39 -0.49 -0.263207 0.00638887 0.0972393 0.0973617 2.33637e-05 0.0975084 1.72181e-06 271.948 
-0.43 -0.47 -0.302516 0.580989 0.0971675 0.0973407 -6.10663e-05 0.0972424 1.71319e-06 272.571 
-0.47 -0.45 0.0250206 -0.133908 0.0973973 0.0975894 -0.000254192 0.0975807 1.71941e-06 272.53 
-0.37 -0.49 -0.656468 0.225159 0.0973579 0.0977117 0.000231667 0.0977031 1.72077e-06 272.656 
-0.41 -0.47 -0.329573 0.36265 0.0974777 0.0977646 -1.49686e-05 0.0975678 1.7116e-06 273.738 
-0.45 -0.45 -0.2106 0.295797 0.0975754 0.0971563 6.76355e-05 0.0976138 1.71769e-06 272.896 
-0.49 -0.43 -0.0625786 -0.152219 0.0974699 0.0975098 0.000172397 0.0975138 1.71562e-06 272.944 
-0.35 -0.49 -1.02099 0.183232 0.0972364 0.0974662 0.00017157 0.0975393 1.71742e-06 272.73 
-0.39 -0.47 -0.612855 0.349298 0.097454 0.0974837 7.14317e-05 0.0976176 1.716e-06 273.175 
-0.43 -0.45 -0.790929 0.226236 0.0972267 0.0973337 -0.000201628 0.0974811 1.71838e-06 272.416 
-0.47 -0.43 -0.387002 0.0707898 0.0972414 0.097437 -5.05808e-05 0.0974027 1.71599e-06 272.576 
-0.37 -0.47 -0.458568 0.355477 0.0973107 0.0975761 0.00013189 0.0975842 1.71303e-06 273.556 
-0.41 -0.45 -0.568126 0.652827 0.0970361 0.0974047 0.000122641 0.0972851 1.71474e-06 272.445 
-0.45 -0.43 -0.713215 0.375412 0.0971781 0.0971143 -5.45947e-06 0.0973802 1.71407e-06 272.817 
-0.49 -0.41 -0.0527794 0.261068 0.0972628 0.0973182 0.000156471 0.0971318 1.71292e-06 272.304 
-0.35 -0.47 -0.479872 0.0802942 0.0977017 0.0976274 0.000159623 0.0977154 1.71805e-06 273.122 
-0.39 -0.45 -0.3023 0.0343059 0.0973344 0.0975173 2.21426e-05 0.097399 1.7126e-06 273.105 
-0.43 -0.43 -0.714934 0.154579 0.0973289 0.0970152 -6.4419e-05 0.0973036 1.71348e-06 272.697 
-0.47 -0.41 0.10357 0.105307 0.0973753 0.0975635 8.20388e-05 0.0973908 1.71639e-06 272.479 
-0.37 -0.45 -0.211369 0.219958 0.0973165 0.0976067 -9.35788e-05 0.0975795 1.71625e-06 273.029 
-0.41 -0.43 -0.625501 0.476248 0.0976409 0.0975139 -5.10581e-05 0.0975949 1.71792e-06 272.806 
-0.45 -0.41 -0.253196 0.302419 0.0974297 0.0973516 -1.38827e-05 0.0975312 1.71599e-06 272.935 
-0.49 -0.39 0.439379 0.259044 0.0976003 0.0973702 1.31155e-05 0.0974308 1.71421e-06 272.937 
-0.35 -0.45 -0.509414 0.513236 0.0972944 0.0974238 0.000247186 0.0975216 1.7177e-06 272.637 
-0.39 -0.43 -0.32039 -0.0695342 0.0976045 0.0976728 -2.72168e-05 0.0974169 1.71279e-06 273.125 
-0.43 -0.41 -0.280082 0.364881 0.0973467 0.0972602 -0.000267244 0.0973588 1.71469e-06 272.659 
-0.47 -0.39 0.123587 -0.100332 0.0977798 0.0975171 6.6182e-06 0.0975589 1.71807e-06 272.682 
-0.33 -0.45 -0.406115 0.0450089 0.0976564 0.0975363 0.00014206 0.0974391 1.71858e-06 272.266 
-0.37 -0.43 -0.627204 0.248438 0.0976749 0.0975044 -2.5908e-05 0.0976551 1.71542e-06 273.372 
-0.41 -0.41 -0.500174 0.046448 0.0972969 0.0972085 -0.000127095 0.0973278 1.71499e-06 272.524 
-0.45 -0.39 0.254534 0.487139 0.0979501 0.097664 -9.92402e-05 0.0976683 1.72385e-06 272.073 
-0.35 -0.43 -0.472654 0.802401 0.0975161 0.0975044 0.000116271 0.0976642 1.71557e-06 273.375 
-0.39 -0.41 -0.187485 -0.237028 0.0975486 0.0975545 1.36888e-05 0.0974652 1.7139e-06 273.082 
-0.43 -0.39 0.0446413 0.630885 0.0977976 0.0972869 -0.00010349 0.0975116 1.71681e-06 272.749 
-0.37 -0.41 -0.300289 0.660521 0.0973472 0.097345 4.09498e-05 0.0973681 1.70868e-06 273.644 
-0.41 -0.39 -0.197532 0.0434449 0.0978654 0.0972405 -0.00014225 0.0974927 1.71481e-06 273.016 
-0.35 -0.41 -0.667514 0.542709 0.0975615 0.0973807 -0.000142769 0.0974978 1.71712e-06 272.662 
-0.39 -0.39 -0.619069 0.27375 0.0977332 0.0974942 -8.48839e-05 0.0974551 1.71425e-06 272.998 
-0.33 -0.41 -0.290136 0.147806 0.0975283 0.0975811 1.58577e-05 0.0976239 1.71598e-06 273.196 
-0.37 -0.39 -0.193197 0.130367 0.0976104 0.0974574 -9.95932e-05 0.097546 1.71337e-06 273.395 
-0.35 -0.39 0.410799 0.485288 0.097541 0.0972184 -4.23181e-05 0.0974153 1.71091e-06 273.42 
-0.33 -0.39 -0.399473 0.0998586 0.0975901 0.0975392 9.45936e-05 0.0976449 1.72071e-06 272.503 
-0.37 -0.37 -0.665072 0.00415383 0.0975723 0.0975025 6.02813e-05 0.0973693 1.70941e-06 273.531 
-0.49 -0.37 -0.169511 -0.030488 0.0977407 0.0974403 0.000120965 0.0975676 1.71707e-06 272.865 
-0.47 -0.37 -0.333786 0.00686805 0.0975958 0.0975193 -2.70918e-05 0.0975431 1.71507e-06 273.114 
-0.45 -0.37 -0.0796907 0.504014 0.0974596 0.0972764 -1.25767e-05 0.0974017 1.71743e-06 272.343 
-0.49 -0.35 -0.0596317 0.167667 0.097691 0.0973639 -0.000166853 0.097672 1.71387e-06 273.667 
-0.43 -0.37 -0.0183385 0.837134 0.0976107 0.097395 -8.35297e-05 0.0975524 1.71781e-06 272.705 
-0.47 -0.35 -0.069116 0.365451 0.0977127 0.0974906 0.00010223 0.0976727 1.70932e-06 274.398 
-0.45 -0.35 0.0259275 0.263301 0.0979528 0.0975885 -0.000255406 0.0977457 1.71458e-06 273.76 
-0.49 -0.33 0.04924 0.228234 0.0978492 0.0971085 -0.000217396 0.0976343 1.71738e-06 273.003 
-0.39 -0.37 -0.24976 0.425552 0.0974425 0.0972459 -0.000120108 0.0972232 1.70716e-06 273.481 
-0.43 -0.35 0.00520765 0.56312 0.0980196 0.0974222 -0.000140272 0.0976891 1.71744e-06 273.146 
-0.47 -0.33 0.344082 0.142187 0.0980273 0.097659 -0.000104107 0.0979322 1.71935e-06 273.521 
-0.41 -0.35 0.188125 0.248564 0.0976615 0.0970914 7.62099e-05 0.0974004 1.71154e-06 273.278 
-0.45 -0.33 -0.280035 0.398206 0.0978184 0.0978367 -5.33291e-05 0.0978735 1.7164e-06 273.827 
-0.49 -0.31 0.0691685 0.298739 0.0979201 0.0972 -5.3914e-05 0.0976133 1.71625e-06 273.123 
-0.39 -0.35 -0.285936 0.678824 0.0977069 0.097357 -8.1316e-05 0.0975419 1.71357e-06 273.35 
-0.43 -0.33 0.0654243 0.58174 0.0974625 0.0968853 -4.6462e-05 0.0972025 1.71157e-06 272.718 
-0.47 -0.31 -0.256904 -0.0610828 0.097755 0.0971333 -0.000291064 0.0975138 1.71148e-06 273.606 
-0.37 -0.35 -0.0932392 -0.0635999 0.0976432 0.0970927 6.15318e-05 0.0974231 1.71353e-06 273.024 
-0.41 -0.33 -0.178887 0.671463 0.0977408 0.097431 -3.4467e-05 0.0973908 1.71231e-06 273.127 
-0.45 -0.31 0.0401221 0.378345 0.0979902 0.0977756 0.000115692 0.09783 1.71634e-06 273.715 
-0.49 -0.29 0.0161618 0.0603146 0.0977188 0.0973755 1.71545e-05 0.0976569 1.71793e-06 272.979 
-0.35 -0.35 -0.534121 0.588162 0.0977896 0.0974029 -5.0067e-05 0.097711 1.71992e-06 272.813 
-0.39 -0.33 -0.155746 0.525696 0.0976173 0.0971848 2.59039e-05 0.0974078 1.71083e-06 273.412 
-0.43 -0.31 -0.391508 0.373061 0.0977438 0.0973507 3.46258e-05 0.0974613 1.71098e-06 273.539 
-0.47 -0.29 -0.0899248 0.497184 0.0976215 0.0970487 -9.87617e-05 0.0973353 1.71276e-06 272.901 
-0.37 -0.33 -0.395059 0.454465 0.0974347 0.0971264 -7.24276e-05 0.0972764 1.71129e-06 272.97 
-0.41 -0.31 -0.420806 0.407879 0.0974271 0.0972241 -4.15032e-05 0.097206 1.70845e-06 273.225 
-0.45 -0.29 -0.400568 0.457572 0.0974428 0.0974864 0.000137722 0.0975224 1.71053e-06 273.781 
-0.49 -0.27 -0.00151557 0.232174 0.0975772 0.0974203 -7.19811e-05 0.0974814 1.71351e-06 273.19 
-0.35 -0.33 -0.734951 0.632508 0.0976766 0.0973859 0.000150823 0.0974908 1.70825e-06 274.058 
-0.39 -0.31 -0.0625951 0.826366 0.0976932 0.0973281 0.000175228 0.0975481 1.71078e-06 273.814 
-0.43 -0.29 -0.940509 0.651548 0.0975592 0.0975281 0.00032416 0.0975668 1.71272e-06 273.555 
-0.47 -0.27 0.0939024 0.40613 0.0974697 0.0970387 -7.93705e-05 0.0972412 1.71065e-06 272.973 
-0.33 -0.33 -0.803434 0.501232 0.0977716 0.0975044 0.000108677 0.0975495 1.7145e-06 273.223 
-0.37 -0.31 -0.781549 1.11632 0.0976126 0.0971083 7.65286e-05 0.0974045 1.71174e-06 273.258 
-0.41 -0.29 -1.00611 0.773955 0.0976135 0.0972213 3.99277e-05 0.097361 1.71286e-06 272.957 
-0.45 -0.27 0.0806432 0.713433 0.0974508 0.096985 2.13297e-05 0.0972631 1.7068e-06 273.651 
-0.35 -0.31 -0.879339 0.770681 0.0975117 0.0974842 4.60943e-05 0.0974545 1.7104e-06 273.611 
-0.39 -0.29 -1.32862 0.510958 0.097425 0.097114 -0.000160788 0.0972873 1.71142e-06 272.979 
-0.43 -0.27 -0.217861 0.888113 0.0975772 0.0973987 1.01088e-05 0.097543 1.71859e-06 272.554 
-0.37 -0.29 -0.504522 0.957829 0.097423 0.097051 6.78845e-06 0.0974472 1.71144e-06 273.425 
-0.41 -0.27 -0.251872 0.645061 0.0975725 0.0975848 6.58376e-06 0.0975627 1.71445e-06 273.268 
-0.35 -0.29 -1.22127 0.894625 0.0977016 0.0977038 -7.51961e-06 0.0978049 1.71894e-06 273.231 
-0.39 -0.27 -0.479511 0.966786 0.0976486 0.0970131 -1.29811e-06 0.0975257 1.71472e-06 273.121 
-0.33 -0.29 -1.34242 1.95638 0.0976605 0.0968326 0.000154343 0.0973464 1.71356e-06 272.803 
-0.37 -0.27 -1.20454 1.43404 0.0978126 0.0969846 -9.75546e-05 0.097708 1.71991e-06 272.806 
-0.35 -0.27 -1.81189 1.55999 0.0977602 0.0973666 -1.14036e-05 0.0977594 1.72076e-06 272.815 
-0.41 -0.37 -0.163841 -0.0202462 0.0975226 0.0972231 -0.000208729 0.0973941 1.71191e-06 273.201 
-0.35 -0.37 -0.149276 0.489194 0.0974937 0.0973123 1.70834e-05 0.0975649 1.71508e-06 273.174 
-0.45 -0.25 -0.430926 0.644791 0.0976271 0.0969359 -0.000149804 0.0974334 1.71545e-06 272.748 
-0.37 -0.25 -1.2186 1.34983 0.0976472 0.0970145 -2.08389e-05 0.0975422 1.71646e-06 272.891 
-0.35 -0.25 -0.774147 1.70882 0.0977039 0.0970155 4.93288e-05 0.0973509 1.71645e-06 272.358 
-0.33 -0.49 -1.12245 -0.320823 0.0974444 0.097488 6.31088e-05 0.0976457 1.71875e-06 272.816 
-0.31 -0.49 -0.857222 0.184671 0.0973893 0.0974787 2.08942e-05 0.0975237 1.71281e-06 273.42 
-0.29 -0.49 -1.02996 -0.195601 0.0973402 0.0977283 2.7092e-05 0.0976527 1.71727e-06 273.071 
-0.33 -0.47 -0.800652 -0.0106736 0.097384 0.0973161 0.000157104 0.0974809 1.71631e-06 272.744 
-0.27 -0.49 -0.637182 0.207803 0.0972558 0.0975814 0.000157272 0.0974227 1.71536e-06 272.732 
-0.31 -0.47 -1.04675 -0.204952 0.0971864 0.0975112 0.000100775 0.0975364 1.71555e-06 273.02 
-0.29 -0.47 -0.733913 -0.154005 0.0974512 0.097656 5.01695e-05 0.0975034 1.71477e-06 273.052 
-0.27 -0.47 -0.689784 -0.182302 0.0976633 0.0973733 -9.91709e-05 0.0974667 1.71678e-06 272.629 
-0.31 -0.45 -0.248917 0.148953 0.0980058 0.0978887 -9.63783e-05 0.0978823 1.72012e-06 273.26 
-0.29 -0.45 -0.599697 -0.313616 0.0977018 0.0977518 -9.93158e-05 0.0976644 1.7156e-06 273.37 
-0.33 -0.43 -0.533573 -0.0347858 0.0975249 0.0975363 -3.37183e-05 0.0975557 1.71306e-06 273.471 
-0.27 -0.45 -0.539596 -0.600392 0.097473 0.097316 3.1743e-05 0.0972184 1.70786e-06 273.354 
-0.31 -0.43 -0.536344 -0.0903905 0.0974157 0.0977946 1.43797e-05 0.0973843 1.71765e-06 272.26 
-0.29 -0.43 -0.280921 -0.0363072 0.0974538 0.0975466 0.000109333 0.0973306 1.70987e-06 273.349 
-0.27 -0.43 -0.897819 -0.525853 0.0974073 0.0971446 0.000286423 0.0971829 1.71149e-06 272.675 
-0.31 -0.41 -0.553745 -0.0157705 0.0975879 0.0976307 2.79942e-05 0.097515 1.71535e-06 272.992 
-0.29 -0.41 -1.08355 0.0700494 0.0974324 0.0973629 0.000295871 0.0972685 1.70644e-06 273.723 
-0.27 -0.41 -1.1327 -0.362666 0.0973121 0.0971653 0.000225556 0.0971099 1.70707e-06 273.177 
-0.31 -0.39 -0.41126 0.427685 0.097552 0.0975997 0.000110815 0.0975055 1.7196e-06 272.291 
-0.29 -0.39 -0.880674 0.521195 0.0974298 0.0972517 0.000242229 0.09727 1.71381e-06 272.55 
-0.33 -0.37 -0.267354 0.67991 0.0973711 0.0974481 6.54482e-05 0.0975278 1.71585e-06 272.948 
-0.27 -0.39 -1.45409 -0.288754 0.0976874 0.0973527 0.000133043 0.0975003 1.71589e-06 272.865 
-0.31 -0.37 -0.744366 0.234572 0.0972202 0.097407 -2.53482e-05 0.0974192 1.71554e-06 272.692 
-0.29 -0.37 -0.949945 0.850903 0.0975222 0.0971985 0.00011648 0.097381 1.7125e-06 273.071 
-0.33 -0.35 -0.242227 0.862626 0.0978036 0.0972934 2.26986e-06 0.0975453 1.7179e-06 272.671 
-0.27 -0.37 -1.43538 0.567086 0.0977682 0.0974476 4.75053e-05 0.0974322 1.71448e-06 272.898 
-0.31 -0.35 -0.739182 1.14585 0.0977178 0.0973789 0.000253438 0.097489 1.71716e-06 272.631 
-0.29 -0.35 -1.00552 0.735611 0.0974794 0.0971647 9.54454e-07 0.0973472 1.71562e-06 272.479 
-0.27 -0.35 -1.07408 1.28234 0.0974157 0.0973137 0.00015553 0.0973589 1.71378e-06 272.804 
-0.31 -0.33 -0.775257 1.36785 0.0977329 0.0970082 0.000128811 0.0973768 1.71517e-06 272.633 
-0.29 -0.33 -1.23197 1.14015 0.0975321 0.097366 9.82963e-05 0.0976273 1.71276e-06 273.718 
-0.33 -0.31 -1.25276 0.874821 0.0974306 0.0971241 1.22794e-05 0.0972881 1.70826e-06 273.487 
-0.27 -0.33 -1.47893 1.56988 0.097549 0.0969737 0.000222412 0.0974451 1.71389e-06 273.028 
-0.31 -0.31 -1.41547 1.08808 0.0972552 0.0971591 0.000337041 0.0972915 1.71022e-06 273.182 
-0.29 -0.31 -1.30478 1.51125 0.0976561 0.0974768 3.59212e-05 0.0975947 1.7141e-06 273.414 
-0.27 -0.31 -1.72745 1.45592 0.09776 0.0969241 0.00013948 0.097386 1.71049e-06 273.405 
-0.31 -0.29 -1.6112 1.00449 0.0978553 0.0973696 0.000167681 0.0975727 1.71823e-06 272.694 
-0.29 -0.29 -1.6013 1.32431 0.0977525 0.0973021 7.93424e-05 0.0974172 1.71461e-06 272.835 
-0.27 -0.29 -1.69404 1.68921 0.097777 0.0971713 0.000182285 0.0977387 1.71662e-06 273.415 
-0.31 -0.27 -1.38755 1.28994 0.0975045 0.0971433 -8.19192e-05 0.0973352 1.71261e-06 272.924 
-0.25 -0.29 -1.95399 1.12957 0.0976833 0.0971223 0.000216242 0.0974646 1.71028e-06 273.659 
-0.29 -0.27 -1.51277 1.4649 0.0975823 0.0973338 0.00012683 0.097446 1.70935e-06 273.755 
-0.27 -0.27 -1.83714 1.65718 0.0975994 0.0970212 0.00013282 0.0973862 1.71474e-06 272.727 
-0.25 -0.27 -2.02393 1.61078 0.0976107 0.0970302 1.51077e-05 0.097197 1.7091e-06 273.097 
-0.33 -0.27 -1.85941 1.50094 0.0977209 0.0970558 0.000134099 0.0972749 1.71137e-06 272.953 
-0.25 -0.49 -0.785597 -0.121736 0.0973578 0.0977491 9.31634e-05 0.0976265 1.71591e-06 273.214 
-0.25 -0.47 -0.171278 0.0809063 0.0978833 0.097736 0.00014308 0.0975479 1.71583e-06 273.008 
-0.25 -0.45 -0.605459 0.294693 0.0969861 0.0974312 0.000207555 0.0970122 1.70547e-06 273.158 
-0.25 -0.37 -2.07006 0.0185686 0.0975793 0.0971735 0.00012271 0.0973789 1.70712e-06 273.924 
-0.25 -0.35 -1.54042 0.175646 0.0976096 0.0970283 0.000191695 0.0973755 1.71381e-06 272.846 
-0.25 -0.33 -1.62863 0.522535 0.0975868 0.097134 0.000151629 0.0975964 1.71511e-06 273.257 
-0.25 -0.25 -2.42159 1.96315 0.0975392 0.097065 0.000204168 0.0973529 1.71159e-06 273.137 
-0.49 -0.25 0.0516828 0.175446 0.0979284 0.0973717 5.19259e-05 0.0976072 1.71544e-06 273.235 
-0.47 -0.25 -0.41027 0.310561 0.0976652 0.0969883 5.16718e-05 0.0973745 1.71325e-06 272.932 
-0.49 -0.23 -0.374429 0.298157 0.0975115 0.0971241 -9.12259e-05 0.0972123 1.70452e-06 273.873 
-0.47 -0.23 0.171193 0.478984 0.0975941 0.0972231 4.54247e-05 0.0973051 1.71412e-06 272.599 
-0.45 -0.23 0.115841 0.876283 0.0977836 0.0968882 -0.000286678 0.0973795 1.71314e-06 272.965 
-0.49 -0.21 0.0640567 0.570142 0.0973412 0.0969207 -0.000244109 0.0972646 1.70657e-06 273.692 
-0.43 -0.23 -0.359242 0.570141 0.0981081 0.0977125 -0.000193126 0.0978867 1.72031e-06 273.242 
-0.47 -0.21 0.238431 0.370318 0.0974885 0.0973414 -7.77177e-05 0.0975433 1.71501e-06 273.124 
-0.41 -0.23 -0.858386 1.9084 0.0979451 0.0972932 9.94539e-05 0.097704 1.71637e-06 273.358 
-0.45 -0.21 0.15052 0.52759 0.0976975 0.0972125 -0.000223062 0.0975913 1.71553e-06 273.177 
-0.49 -0.19 0.0383701 0.616152 0.0978005 0.0969416 -0.000173411 0.0973085 1.71273e-06 272.831 
-0.39 -0.23 -0.76459 1.61595 0.0977644 0.0969832 0.000188389 0.0974177 1.71595e-06 272.624 
-0.43 -0.21 -0.159927 1.42599 0.0975053 0.0971901 -0.000169148 0.0975041 1.71482e-06 273.045 
-0.47 -0.19 -0.663885 0.364518 0.0978574 0.0973745 -0.000289479 0.0977096 1.71864e-06 273.013 
-0.41 -0.21 -0.700249 1.91006 0.0975291 0.097131 0.000111675 0.097365 1.71235e-06 273.05 
-0.45 -0.19 -0.973643 1.26278 0.0974686 0.0972413 -0.000225255 0.0974032 1.71162e-06 273.273 
-0.49 -0.17 -0.409833 0.751446 0.0975789 0.0968609 -0.000126172 0.0973097 1.7142e-06 272.6 
-0.39 -0.21 -0.445472 1.70242 0.0978507 0.0970113 2.70406e-05 0.0975559 1.71053e-06 273.875 
-0.43 -0.19 -1.27418 1.57209 0.097563 0.096976 -0.000120079 0.0975045 1.70996e-06 273.822 
-0.47 -0.17 -0.495337 1.04065 0.0974922 0.0971459 -0.000155634 0.0974368 1.71442e-06 272.92 
-0.41 -0.19 -0.892257 1.54286 0.0976626 0.0969734 -3.73074e-05 0.0974202 1.71435e-06 272.885 
-0.45 -0.17 -0.539772 1.04902 0.0977019 0.0970261 -0.000145114 0.0974573 1.71464e-06 272.942 
-0.49 -0.15 0.00139844 0.779695 0.0973991 0.0969844 -0.000326368 0.097256 1.71628e-06 272.119 
-0.39 -0.19 -1.39492 1.83606 0.0976372 0.0970838 -2.71158e-05 0.0973505 1.71001e-06 273.383 
-0.43 -0.17 -0.327749 1.57309 0.0977215 0.0972441 -7.70607e-05 0.097679 1.713e-06 273.826 
-0.47 -0.15 -0.26737 1.48835 0.0978229 0.0972778 -0.000380597 0.0976235 1.72105e-06 272.389 
-0.41 -0.17 -0.8426 1.93698 0.0976009 0.0968332 -0.000174658 0.097158 1.70998e-06 272.846 
-0.45 -0.15 -0.391809 1.12835 0.0976362 0.0970363 -0.000162258 0.0973043 1.71498e-06 272.461 
-0.39 -0.17 -1.08659 1.72827 0.097522 0.0971113 2.45337e-05 0.097387 1.70806e-06 273.797 
-0.43 -0.15 -0.689352 1.46134 0.0974088 0.0968541 -3.30445e-05 0.0970658 1.70941e-06 272.679 
-0.41 -0.15 -1.01109 2.30317 0.0974253 0.0968532 -5.30157e-05 0.0970407 1.7085e-06 272.753 
-0.39 -0.15 -1.27029 2.1314 0.0977898 0.0968902 -0.000103693 0.0973554 1.70936e-06 273.499 
-0.43 -0.25 0.217858 0.771483 0.0978866 0.0974815 7.22742e-06 0.0978499 1.71797e-06 273.511 
-0.41 -0.25 -0.385507 1.29022 0.0978925 0.0974741 -0.000138579 0.0974884 1.714e-06 273.133 
-0.39 -0.25 -1.01584 1.54594 0.0978493 0.0971385 2.44857e-05 0.0975111 1.71431e-06 273.147 
-0.37 -0.23 -1.00878 1.73884 0.0977014 0.0971663 9.75751e-05 0.0975771 1.718e-06 272.744 
-0.35 -0.23 -1.51508 1.55525 0.0975437 0.0971808 6.37011e-05 0.0974327 1.71634e-06 272.604 
-0.33 -0.23 -1.76465 1.40355 0.0975734 0.097 -3.46508e-05 0.0972579 1.70945e-06 273.212 
-0.37 -0.21 -0.505357 2.31075 0.098032 0.0971032 7.41765e-05 0.0976705 1.71292e-06 273.814 
-0.35 -0.21 -1.29663 2.35981 0.0978863 0.0974481 -2.68592e-05 0.0976108 1.71697e-06 273.002 
-0.33 -0.21 -1.21454 1.28152 0.0978433 0.0969184 0.000118401 0.097209 1.7104e-06 272.923 
-0.37 -0.19 -1.49851 2.04765 0.0975883 0.0970352 5.55097e-05 0.0975789 1.71506e-06 273.216 
-0.35 -0.19 -1.10016 2.62107 0.0974673 0.097101 0.00015786 0.0972269 1.7141e-06 272.383 
-0.33 -0.19 -1.61932 1.94007 0.0975023 0.0971436 0.00023587 0.0972572 1.71029e-06 273.076 
-0.37 -0.17 -0.828536 2.41667 0.0975352 0.0969171 3.55984e-05 0.0973157 1.71226e-06 272.926 
-0.35 -0.17 -1.78635 2.72042 0.0977659 0.0969888 0.000129573 0.0973384 1.7111e-06 273.173 
-0.33 -0.17 -1.992 2.67993 0.0978537 0.0972392 8.36396e-06 0.0974362 1.70887e-06 273.805 
-0.37 -0.15 -1.54976 2.55439 0.0978332 0.0969642 5.81327e-05 0.0975885 1.71474e-06 273.294 
-0.35 -0.15 -1.69206 3.0009 0.0979722 0.0971527 -0.000117572 0.0977729 1.72057e-06 272.883 
-0.33 -0.15 -2.08554 2.95792 0.0978047 0.0970996 2.85113e-05 0.0975288 1.71434e-06 273.19 
-0.35 -0.13 -2.10092 2.85615 0.0977518 0.096872 -4.14254e-05 0.0974422 1.71861e-06 272.271 
-0.33 -0.13 -2.43333 3.15265 0.0976296 0.0969696 0.000215033 0.0973596 1.71458e-06 272.678 
-0.33 -0.09 -1.63235 3.36693 0.0979241 0.0966703 3.40212e-06 0.0972921 1.7114e-06 272.996 
-0.37 -0.13 -2.18379 2.73736 0.0976939 0.0969988 -0.000208396 0.097438 1.71453e-06 272.907 
-0.37 -0.11 -2.01005 2.54674 0.0975784 0.0967464 -0.000232497 0.0972532 1.71193e-06 272.802 
-0.35 -0.11 -2.21664 3.21219 0.0974428 0.0968608 0.000161954 0.0973326 1.71365e-06 272.752 
-0.33 -0.11 -2.2306 3.42889 0.0973475 0.0965422 0.000216544 0.0970627 1.70603e-06 273.21 
-0.35 -0.09 -1.3894 3.32708 0.0976733 0.0967173 4.60576e-05 0.0971211 1.70865e-06 272.955 
-0.49 -0.13 0.181014 1.03741 0.0977598 0.0971966 -0.000422266 0.0973501 1.71084e-06 273.247 
-0.47 -0.13 -0.0038878 1.61495 0.0974098 0.0966552 -0.000244431 0.0970328 1.71052e-06 272.408 
-0.45 -0.13 -0.34323 1.20757 0.097433 0.0969188 1.21429e-06 0.0971917 1.71525e-06 272.103 
-0.49 -0.11 -0.141183 0.962915 0.097112 0.0968718 -0.000367538 0.0970157 1.71071e-06 272.33 
-0.43 -0.13 -1.26734 2.19622 0.0974496 0.0967518 -0.000159636 0.0971441 1.70909e-06 272.949 
-0.47 -0.11 -0.222109 1.87194 0.0974946 0.0966537 -0.000184936 0.0970212 1.71027e-06 272.416 
-0.41 -0.13 -1.54321 2.6602 0.09766 0.0971488 -8.97214e-05 0.0975517 1.71571e-06 273.037 
-0.45 -0.11 -1.24796 2.57212 0.0975482 0.0967928 -0.000179994 0.0971429 1.70972e-06 272.845 
-0.49 -0.09 -0.149791 1.0781 0.0977002 0.0967999 -0.000338222 0.0972266 1.71571e-06 272.127 
-0.39 -0.13 -1.87645 2.09857 0.097591 0.0968593 -0.000202185 0.097406 1.71214e-06 273.198 
-0.43 -0.11 -1.58831 2.15056 0.0974398 0.0970006 -0.000259088 0.0974285 1.71098e-06 273.446 
-0.47 -0.09 -0.605588 2.59273 0.0975831 0.0968252 -0.000414768 0.0971655 1.70859e-06 273.089 
-0.41 -0.11 -1.32743 2.58551 0.0976167 0.0968062 -0.000258996 0.0974517 1.70898e-06 273.832 
-0.45 -0.09 -0.758979 2.43986 0.0977173 0.096758 -0.000410463 0.0974262 1.71297e-06 273.122 
-0.39 -0.11 -1.51703 3.07176 0.097593 0.0970846 -5.64869e-05 0.0975132 1.7129e-06 273.376 
-0.43 -0.09 -0.276584 2.65409 0.0981391 0.0972101 -0.000400973 0.0977143 1.71179e-06 274.118 
-0.41 -0.09 -1.13836 2.73458 0.0979018 0.0964457 -0.000227445 0.0972853 1.70865e-06 273.417 
-0.39 -0.09 -1.20032 3.12485 0.0980344 0.0971713 -0.000106725 0.0975826 1.71477e-06 273.273 
-0.37 -0.09 -1.2698 3.14767 0.0975687 0.0966685 -1.16345e-05 0.0972084 1.70918e-06 273.116 
-0.35 -0.03 -1.62098 4.4507 0.0974559 0.0966779 -0.000137747 0.097095 1.70735e-06 273.089 
-0.37 -0.07 -1.5423 3.1668 0.0978035 0.0966202 2.63807e-05 0.0972543 1.70863e-06 273.333 
-0.41 -0.05 -0.934459 3.78707 0.0972747 0.096204 -0.000435717 0.0966854 1.70052e-06 273.03 
-0.45 -0.03 0.041577 2.95197 0.0969316 0.0963242 -0.000502074 0.0967295 1.70404e-06 272.589 
-0.35 -0.07 -2.02306 3.70378 0.0978528 0.096618 9.10359e-05 0.0973073 1.70939e-06 273.359 
-0.39 -0.05 -0.827092 3.38382 0.0976483 0.0967276 -0.000261713 0.0972564 1.71239e-06 272.738 
-0.43 -0.03 -0.142596 3.85836 0.0973206 0.0966137 -0.000303228 0.0970245 1.70552e-06 273.183 
-0.33 -0.07 -2.02285 4.01195 0.0976854 0.096751 -7.59087e-06 0.0972561 1.70799e-06 273.439 
-0.37 -0.05 -1.50969 3.85248 0.097361 0.0965932 -6.58668e-05 0.0969543 1.7073e-06 272.702 
-0.41 -0.03 -0.554657 3.2917 0.0973762 0.0966757 -0.000279105 0.0971251 1.7051e-06 273.535 
-0.35 -0.05 -2.17904 4.01032 0.0973867 0.096293 -0.000140583 0.0967552 1.70467e-06 272.561 
-0.39 -0.03 -1.22794 3.7122 0.0972074 0.0963634 -0.000230845 0.0968004 1.70878e-06 272.032 
-0.33 -0.05 -2.40273 4.29228 0.0977951 0.0966841 0.0001038 0.0973266 1.70946e-06 273.403 
-0.37 -0.03 -0.978926 4.30513 0.0972755 0.0964682 -4.68112e-05 0.0969319 1.70911e-06 272.35 
-0.33 -0.03 -1.48378 3.96854 0.097334 0.0962652 -0.000115433 0.0966044 1.69977e-06 272.921 
-0.33 -0.01 -1.77535 3.84966 0.097263 0.096129 -0.000207233 0.096614 1.69935e-06 273.016 
-0.49 -0.07 -0.328875 1.51314 0.0973155 0.0967226 -0.00054461 0.0968199 1.70627e-06 272.488 
-0.47 -0.07 -0.338518 2.10044 0.0973544 0.0966493 -0.000460646 0.0969431 1.70454e-06 273.112 
-0.45 -0.07 -0.0654513 2.58862 0.0974406 0.0968619 -0.000617988 0.0969846 1.70751e-06 272.754 
-0.49 -0.05 -0.11992 2.0989 0.0974237 0.0968238 -0.000465846 0.0969031 1.70755e-06 272.517 
-0.43 -0.07 -0.429607 2.85075 0.0975085 0.0968128 -0.000474226 0.097145 1.70699e-06 273.287 
-0.47 -0.05 -0.0539569 1.8402 0.0974712 0.0969138 -0.000567217 0.0972189 1.7116e-06 272.758 
-0.41 -0.07 -0.852671 3.50168 0.0975689 0.0964669 -0.000154612 0.0969465 1.70383e-06 273.235 
-0.45 -0.05 -0.188775 2.91451 0.0975208 0.0965943 -0.000538978 0.0970399 1.70708e-06 272.977 
-0.49 -0.03 0.486762 1.80629 0.0975971 0.0968188 -0.000320394 0.0973566 1.71214e-06 273.06 
-0.39 -0.07 -1.23571 3.42491 0.0977104 0.0969079 -0.000222894 0.097305 1.7092e-06 273.384 
-0.43 -0.05 -0.762471 3.12633 0.097203 0.0969529 -0.000177401 0.0970639 1.7063e-06 273.17 
-0.47 -0.03 0.656851 2.18863 0.0974654 0.0970693 -0.00046288 0.0972322 1.71285e-06 272.598 
-0.27 -0.07 -3.15847 3.72997 0.0978538 0.0968768 0.000139545 0.0974081 1.7106e-06 273.45 
-0.31 -0.05 -2.11777 3.24882 0.0979374 0.0967989 0.000126697 0.0973629 1.7093e-06 273.53 
-0.27 -0.09 -2.64478 3.15989 0.09786 0.0968204 0.000292561 0.0973758 1.70844e-06 273.704 
-0.31 -0.07 -2.27747 3.19331 0.0975972 0.0968269 0.000175378 0.0973425 1.70853e-06 273.596 
-0.29 -0.07 -3.15632 3.4175 0.0975412 0.0967839 0.000285717 0.0971539 1.70662e-06 273.373 
-0.25 -0.07 -3.3445 3.30631 0.0977234 0.0971943 0.000138379 0.0975216 1.71546e-06 272.993 
-0.29 -0.05 -2.64929 4.01128 0.0978037 0.0968371 0.00019428 0.0971273 1.70338e-06 273.817 
-0.27 -0.05 -2.87234 4.27407 0.0977273 0.0968935 0.000150138 0.0972513 1.70926e-06 273.223 
-0.31 -0.03 -2.34094 4.59098 0.0972208 0.096872 0.000190149 0.0971902 1.7116e-06 272.679 
-0.25 -0.05 -3.06865 3.35447 0.0974736 0.0969316 0.000415188 0.0973107 1.71394e-06 272.644 
-0.29 -0.03 -2.44836 3.98582 0.0974361 0.096714 0.000206061 0.0969821 1.70196e-06 273.635 
-0.27 -0.03 -2.71455 4.07956 0.0974772 0.0968225 0.00027688 0.0971489 1.70327e-06 273.896 
-0.31 -0.01 -1.70686 5.23189 0.0975657 0.0968022 -2.95853e-05 0.0971918 1.71222e-06 272.583 
-0.25 -0.03 -3.0286 4.07332 0.0973893 0.096816 0.000364364 0.0971749 1.71094e-06 272.74 
-0.29 -0.01 -2.15898 4.29539 0.0974827 0.0966575 6.57552e-05 0.0971074 1.70881e-06 272.891 
-0.27 -0.01 -2.4095 4.48786 0.0974308 0.0965347 0.000324187 0.0972122 1.7075e-06 273.396 
-0.33 -0.25 -0.92555 1.33563 0.0978182 0.0971734 0.000139102 0.0973314 1.70977e-06 273.366 
-0.31 -0.25 -1.23698 1.13603 0.0976925 0.0970524 -1.08302e-05 0.0972964 1.71103e-06 273.067 
-0.29 -0.25 -1.5874 1.89136 0.0976278 0.0971813 0.000157034 0.0973557 1.71594e-06 272.451 
-0.27 -0.25 -2.10673 2.62836 0.097498 0.0970145 0.000151076 0.0974251 1.71464e-06 272.853 
-0.29 -0.11 -2.3708 2.89358 0.0978397 0.0969033 0.000297515 0.0974366 1.70932e-06 273.734 
-0.27 -0.11 -2.59178 3.00798 0.097541 0.0969083 0.000252152 0.0972061 1.70689e-06 273.476 
-0.31 -0.09 -2.13902 2.82401 0.0979087 0.0971059 0.000102479 0.0976268 1.7114e-06 273.936 
-0.29 -0.09 -1.86062 3.42442 0.0977374 0.0969274 0.000120825 0.0973963 1.70936e-06 273.615 
-0.31 -0.23 -1.87279 2.25208 0.0975431 0.0971791 0.000185346 0.097533 1.71205e-06 273.567 
-0.29 -0.23 -3.06997 2.17557 0.0976269 0.0969688 0.000133568 0.0973626 1.71034e-06 273.362 
-0.27 -0.23 -2.44294 2.75253 0.097752 0.0970975 0.000233859 0.0974155 1.71265e-06 273.143 
-0.31 -0.21 -1.90301 2.85721 0.0978346 0.0972076 5.59717e-05 0.0973995 1.7167e-06 272.454 
-0.29 -0.21 -1.81581 2.65309 0.0978806 0.0967615 2.92598e-06 0.0973565 1.70966e-06 273.455 
-0.27 -0.21 -2.17344 2.39347 0.097763 0.0970913 6.84337e-05 0.0975958 1.712e-06 273.753 
-0.31 -0.19 -1.9302 2.87802 0.0976663 0.0973218 -5.7728e-05 0.097352 1.71275e-06 272.949 
-0.25 -0.21 -2.33668 2.00269 0.0979195 0.0972095 7.78393e-05 0.097477 1.7145e-06 273.02 
-0.29 -0.19 -2.09957 2.80932 0.0974217 0.0966445 8.57423e-05 0.0971867 1.70769e-06 273.293 
-0.27 -0.19 -2.02856 1.83229 0.0974069 0.0970191 0.000112975 0.0973377 1.7082e-06 273.636 
-0.31 -0.17 -2.18093 2.77226 0.0978266 0.0970781 3.49391e-05 0.0973895 1.71282e-06 273.043 
-0.25 -0.19 -2.18058 2.68732 0.097439 0.0972714 0.000101314 0.0974107 1.71459e-06 272.821 
-0.29 -0.17 -1.97889 2.98818 0.0975904 0.0968997 0.000237445 0.0973953 1.71155e-06 273.261 
-0.27 -0.17 -2.59046 2.31796 0.0975683 0.0971787 0.0001322 0.0974914 1.71134e-06 273.565 
-0.31 -0.15 -2.41685 2.77805 0.0975806 0.0968433 0.00027621 0.0973689 1.71354e-06 272.87 
-0.25 -0.17 -3.13314 2.73887 0.0975798 0.0970156 0.000105301 0.0973263 1.71229e-06 272.95 
-0.29 -0.15 -2.13163 3.04393 0.0977236 0.0971592 0.000156951 0.0975126 1.71079e-06 273.713 
-0.27 -0.15 -2.61445 3.0392 0.0977204 0.0971922 0.000198899 0.0974744 1.71176e-06 273.449 
-0.31 -0.13 -2.38948 2.99242 0.0977221 0.0970036 0.000358157 0.0974691 1.71077e-06 273.594 
-0.25 -0.15 -2.59932 2.70358 0.0974493 0.0969018 0.000357399 0.0971118 1.70892e-06 272.886 
-0.29 -0.13 -2.43543 2.97056 0.0975768 0.0971056 5.85233e-05 0.0974072 1.70993e-06 273.554 
-0.27 -0.13 -1.91442 3.06187 0.0975966 0.0969518 0.000301596 0.0971687 1.70196e-06 274.162 
-0.31 -0.11 -2.15113 2.54038 0.0976471 0.0972176 3.8439e-05 0.0975731 1.71148e-06 273.772 
-0.25 -0.13 -2.26423 3.39739 0.0977056 0.0969632 0.000383534 0.0973208 1.70959e-06 273.366 
-0.25 -0.23 -2.39772 1.92199 0.097699 0.0971648 -2.76095e-05 0.0974663 1.71188e-06 273.408 
-0.25 -0.11 -2.5943 3.65971 0.0977408 0.0971826 0.000196423 0.0974657 1.71013e-06 273.686 
-0.25 -0.09 -2.67607 3.53302 0.097871 0.0971871 0.000225709 0.0975258 1.70921e-06 274.003 
-0.25 -0.01 -2.9432 4.75912 0.0973735 0.0969725 0.000409416 0.0972391 1.71216e-06 272.726 
-0.23 -0.49 -0.875299 0.19372 0.0972959 0.0976477 3.66121e-05 0.0975564 1.719e-06 272.527 
-0.21 -0.49 -1.3848 -0.163019 0.0972591 0.0968279 0.000199243 0.0971902 1.71348e-06 272.379 
-0.19 -0.49 -0.988995 -0.0958646 0.0972065 0.0973375 0.000302586 0.0972878 1.7129e-06 272.745 
-0.23 -0.47 -0.420143 -0.130838 0.097565 0.0975342 0.0003541 0.0974597 1.71777e-06 272.451 
-0.17 -0.49 -0.543503 -0.289009 0.0971604 0.0973689 0.000319106 0.09726 1.71296e-06 272.657 
-0.21 -0.47 -0.241681 0.216076 0.097197 0.0968469 0.000304516 0.0971264 1.71105e-06 272.586 
-0.15 -0.49 -0.321387 0.0449334 0.0973206 0.0973955 0.000388255 0.0973741 1.71016e-06 273.424 
-0.19 -0.47 -1.07514 -0.0421792 0.0973774 0.0972295 0.00012604 0.0971434 1.70838e-06 273.061 