ITEM: TIMESTEP
986000
ITEM: NUMBER OF CELLS
2500
ITEM: BOX BOUNDS ss ss pp
-0.5 0.5
-0.5 0.5
-0.5 0.5
ITEM: CELLS xc yc f_U[*] f_V[*] f_Tau[1] f_Tau[2] f_Tau[3] f_Press[*] f_Mrho[*] f_Ttra[*] 
-0.49 -0.49 0.0370545 -0.0311202 0.0973708 0.0973826 -6.55435e-05 0.0973649 1.71191e-06 273.119 
-0.47 -0.49 -0.0493803 0.0671458 0.0974467 0.0974885 -7.07395e-05 0.0974829 1.71398e-06 273.119 
-0.45 -0.49 -0.0656898 -0.0421913 0.0974622 0.0973776 -4.47695e-05 0.0974982 1.71459e-06 273.066 
-0.49 -0.47 -0.00911065 -0.0654262 0.0973858 0.0973932 -9.09027e-05 0.0973486 1.71331e-06 272.851 
-0.43 -0.49 -0.0771327 0.0641896 0.0974732 0.0973955 1.25275e-05 0.097436 1.71415e-06 272.962 
-0.47 -0.47 0.0487129 0.166603 0.097376 0.0973388 2.0668e-08 0.0973663 1.71267e-06 273.002 
-0.41 -0.49 -0.0989237 -0.0627387 0.097478 0.0974175 8.78717e-05 0.0974581 1.71476e-06 272.927 
-0.45 -0.47 -0.131423 0.10528 0.0973375 0.0973914 1.00423e-05 0.0973879 1.71367e-06 272.903 
-0.49 -0.45 -0.0514915 -0.0363556 0.0974125 0.0973758 -4.18106e-05 0.0973342 1.71206e-06 273.01 
-0.39 -0.49 -0.155433 0.057173 0.0974267 0.0973769 8.47438e-05 0.0975019 1.71542e-06 272.944 
-0.43 -0.47 -0.167022 0.0143838 0.0972868 0.0973438 5.20032e-05 0.0973128 1.71184e-06 272.985 
-0.47 -0.45 0.028726 0.0226652 0.0973007 0.0973168 -4.42238e-05 0.0972926 1.71116e-06 273.036 
-0.37 -0.49 -0.256074 0.0167185 0.0974145 0.0973284 0.000138881 0.0974377 1.71387e-06 273.011 
-0.41 -0.47 -0.330423 0.0794734 0.0973912 0.097416 5.90909e-06 0.097462 1.71457e-06 272.968 
-0.45 -0.45 0.0180712 0.346195 0.0973805 0.097301 6.58845e-05 0.097339 1.71319e-06 272.842 
-0.49 -0.43 -0.0912564 0.040471 0.097455 0.0972759 4.2708e-05 0.0973865 1.71374e-06 272.887 
-0.35 -0.49 -0.268364 0.100338 0.0974287 0.097346 9.06294e-05 0.0974776 1.71446e-06 273.028 
-0.39 -0.47 -0.365164 0.0850125 0.0975277 0.0973475 0.000119808 0.0974977 1.71357e-06 273.227 
-0.43 -0.45 -0.197283 -0.00432878 0.0974451 0.0974758 -2.72088e-05 0.0974934 1.7151e-06 272.971 
-0.47 -0.43 -0.238865 0.0372491 0.0975294 0.0973939 -2.48188e-05 0.0974734 1.7136e-06 273.154 
-0.37 -0.47 -0.306986 0.0967422 0.0974753 0.097314 9.05167e-05 0.0973789 1.71244e-06 273.074 
-0.41 -0.45 -0.191056 0.335573 0.0973887 0.0973534 7.33847e-06 0.0974608 1.7143e-06 273.007 
-0.45 -0.43 -0.357237 0.496565 0.0975461 0.0973425 2.98304e-05 0.0974755 1.71346e-06 273.182 
-0.49 -0.41 -0.00376597 0.141996 0.0974159 0.097309 3.11126e-05 0.0973711 1.71447e-06 272.729 
-0.35 -0.47 -0.468575 0.0798292 0.0974861 0.0973086 0.000127805 0.0974157 1.71267e-06 273.141 
-0.39 -0.45 -0.364358 0.147748 0.0972234 0.0972016 6.53438e-05 0.0972405 1.71018e-06 273.046 
-0.43 -0.43 -0.457497 0.165661 0.0975632 0.0973784 -5.48339e-06 0.097504 1.71421e-06 273.142 
-0.47 -0.41 -0.097825 0.220662 0.0973843 0.0973751 -6.02133e-05 0.0973683 1.71338e-06 272.894 
-0.37 -0.45 -0.454902 0.0550779 0.0973447 0.0973876 4.99561e-05 0.0973866 1.7124e-06 273.102 
-0.41 -0.43 -0.400318 0.143435 0.097398 0.0973021 7.53183e-05 0.0974262 1.71349e-06 273.039 
-0.45 -0.41 -0.121232 0.362156 0.097395 0.0973283 -2.21628e-05 0.097398 1.71283e-06 273.065 
-0.49 -0.39 -0.0910505 0.279752 0.0974305 0.0974099 -2.48486e-05 0.0974583 1.71297e-06 273.213 
-0.35 -0.45 -0.428039 0.168468 0.0973294 0.0972265 9.79525e-05 0.0972996 1.71118e-06 273.052 
-0.39 -0.43 -0.220656 0.155335 0.0974219 0.0972941 8.71128e-05 0.0973673 1.71198e-06 273.114 
-0.43 -0.41 -0.0427428 0.282226 0.097406 0.0973046 7.71539e-05 0.0973821 1.7112e-06 273.281 
-0.47 -0.39 -0.182431 0.103932 0.0974292 0.0973714 -1.45693e-05 0.0974146 1.71302e-06 273.081 
-0.33 -0.45 -0.554199 0.2204 0.0973838 0.0972787 0.000106268 0.097365 1.71347e-06 272.87 
-0.37 -0.43 -0.53188 0.303603 0.0974834 0.0973636 8.27818e-05 0.0974174 1.71306e-06 273.082 
-0.41 -0.41 -0.399243 0.232248 0.0974435 0.0972893 7.71609e-05 0.0974554 1.71427e-06 272.997 
-0.45 -0.39 -0.0679628 0.435378 0.0974761 0.0972983 -6.35709e-05 0.0973727 1.71253e-06 273.041 
-0.35 -0.43 -0.557346 0.259879 0.0973867 0.0972847 8.5202e-05 0.0973524 1.71135e-06 273.173 
-0.39 -0.41 -0.539379 0.297889 0.0974955 0.0973507 9.83762e-06 0.0974427 1.71412e-06 272.985 
-0.43 -0.39 -0.220922 0.453417 0.0975285 0.0972605 -2.66566e-06 0.0974032 1.71367e-06 272.946 
-0.37 -0.41 -0.601997 0.495963 0.0974936 0.0972165 4.54547e-05 0.0973478 1.71138e-06 273.155 
-0.41 -0.39 -0.324194 0.47419 0.0976382 0.0973396 4.41134e-05 0.0974734 1.71387e-06 273.11 
-0.35 -0.41 -0.680631 0.173864 0.0975538 0.0973258 7.54853e-05 0.0974589 1.71331e-06 273.159 
-0.39 -0.39 -0.572229 0.309546 0.0976196 0.09746 4.22166e-05 0.0975655 1.71437e-06 273.289 
-0.33 -0.41 -0.680979 0.361613 0.0975742 0.0972827 6.31604e-05 0.0974161 1.71235e-06 273.192 
-0.37 -0.39 -0.39293 0.430497 0.097507 0.0971252 -9.78663e-06 0.0974345 1.71218e-06 273.271 
-0.35 -0.39 -0.462029 0.335309 0.0975409 0.0972986 3.27155e-05 0.0974712 1.712e-06 273.403 
-0.33 -0.39 -0.743657 0.537476 0.0976893 0.0972556 6.86347e-05 0.097462 1.71312e-06 273.198 
-0.37 -0.37 -0.700372 0.3008 0.0977242 0.0971994 6.83135e-05 0.0974254 1.71423e-06 272.919 
-0.49 -0.37 -0.00274562 0.25265 0.0976055 0.0974472 -5.21123e-05 0.0975526 1.71575e-06 273.033 
-0.47 -0.37 -0.0441529 0.44253 0.0976519 0.0974036 -4.04636e-05 0.0975685 1.71542e-06 273.13 
-0.45 -0.37 -0.338937 0.292767 0.0975897 0.0972185 -1.68401e-05 0.0973848 1.71377e-06 272.878 
-0.49 -0.35 -0.101838 0.430096 0.0975924 0.0974252 -8.02472e-05 0.0975232 1.71459e-06 273.135 
-0.43 -0.37 -0.264879 0.557169 0.0975909 0.0972416 -5.8108e-05 0.0974447 1.7147e-06 272.897 
-0.47 -0.35 -0.184218 0.349879 0.0975778 0.097326 -1.21581e-05 0.0974545 1.71474e-06 272.919 
-0.45 -0.35 -0.115054 0.531571 0.0976852 0.0972695 -1.51725e-05 0.0974578 1.71333e-06 273.152 
-0.49 -0.33 -0.0413695 0.539891 0.0975127 0.097294 -8.80837e-05 0.0974775 1.71493e-06 272.954 
-0.39 -0.37 -0.46902 0.4837 0.0976673 0.0974578 3.54221e-05 0.0976041 1.71533e-06 273.244 
-0.43 -0.35 -0.358999 0.599308 0.0976952 0.0972018 -5.61444e-05 0.0974669 1.7135e-06 273.151 
-0.47 -0.33 0.0532496 0.297298 0.0975494 0.097324 -7.2741e-05 0.0974672 1.71409e-06 273.058 
-0.41 -0.35 -0.377484 0.629337 0.0976564 0.0973065 -1.12172e-05 0.09754 1.71596e-06 272.964 
-0.45 -0.33 -0.0729898 0.647335 0.0975295 0.0972861 -9.66066e-05 0.0974266 1.71294e-06 273.127 
-0.49 -0.31 0.0540367 0.611911 0.0974112 0.0973197 -0.000141495 0.0973983 1.71347e-06 272.964 
-0.39 -0.35 -0.503917 0.686192 0.0976125 0.097327 -2.15127e-05 0.0975358 1.71509e-06 273.091 
-0.43 -0.33 -0.176225 0.75624 0.0975482 0.0971127 -5.79661e-05 0.097388 1.71373e-06 272.893 
-0.47 -0.31 -0.159749 0.2817 0.0974752 0.0973033 -8.32488e-05 0.097442 1.71324e-06 273.123 
-0.37 -0.35 -0.561681 0.445001 0.097611 0.0972669 8.31496e-05 0.0974632 1.71405e-06 273.053 
-0.41 -0.33 -0.30534 0.747549 0.0976244 0.097327 -3.42641e-05 0.0974533 1.71324e-06 273.155 
-0.45 -0.31 -0.100799 0.668455 0.0974907 0.0972547 -5.95007e-05 0.0974898 1.71301e-06 273.293 
-0.49 -0.29 0.0117169 0.579306 0.097563 0.0972881 -9.99724e-05 0.0974571 1.71365e-06 273.1 
-0.35 -0.35 -0.828263 0.677356 0.0975694 0.0972375 -5.78474e-07 0.0974301 1.71423e-06 272.931 
-0.39 -0.33 -0.350455 0.721898 0.0976931 0.0972253 -2.94414e-05 0.0974873 1.7137e-06 273.177 
-0.43 -0.31 -0.125124 0.80191 0.0975344 0.097258 -0.000106811 0.0974428 1.71268e-06 273.215 
-0.47 -0.29 -0.122261 0.562086 0.0975424 0.0972313 -0.000158497 0.0974218 1.71183e-06 273.29 
-0.37 -0.33 -0.559969 0.780282 0.0977461 0.0972937 2.36841e-05 0.0975887 1.71526e-06 273.212 
-0.41 -0.31 -0.200299 0.890556 0.09758 0.0972731 -0.000161885 0.0974297 1.71331e-06 273.077 
-0.45 -0.29 -0.358175 0.685388 0.09762 0.0972712 -8.46188e-05 0.0975444 1.71364e-06 273.346 
-0.49 -0.27 0.0442203 0.624672 0.0975643 0.0973734 -9.59536e-05 0.0974903 1.71392e-06 273.149 
-0.35 -0.33 -0.945822 0.904838 0.0977491 0.0972704 0.000149841 0.0975623 1.71455e-06 273.251 
-0.39 -0.31 -0.471971 0.834135 0.0976233 0.0971832 -1.54145e-05 0.0974435 1.71358e-06 273.074 
-0.43 -0.29 -0.388369 0.746766 0.0976826 0.0972614 -0.000139501 0.0975359 1.71293e-06 273.435 
-0.47 -0.27 -0.0961094 0.62715 0.0975803 0.0972527 -0.000153734 0.0974397 1.71399e-06 272.996 
-0.33 -0.33 -1.21884 0.821318 0.0976892 0.0971744 8.8222e-05 0.097501 1.71531e-06 272.958 
-0.37 -0.31 -0.773656 1.19433 0.0975084 0.0971413 3.31383e-05 0.0973702 1.71334e-06 272.905 
-0.41 -0.29 -0.576271 1.16674 0.0976218 0.0972692 -6.74783e-05 0.0974661 1.71417e-06 273.043 
-0.45 -0.27 -0.142135 0.91513 0.0975782 0.0972548 -0.000138974 0.0974239 1.71172e-06 273.314 
-0.35 -0.31 -0.913264 1.0998 0.0975211 0.0972737 0.000123366 0.0974522 1.71254e-06 273.263 
-0.39 -0.29 -0.695378 1.0522 0.097459 0.0970186 -6.44181e-05 0.0972596 1.7117e-06 272.857 
-0.43 -0.27 -0.595867 1.03341 0.0975212 0.0971772 -0.000111739 0.0974049 1.71335e-06 273.002 
-0.37 -0.29 -0.81418 1.355 0.0974859 0.0971082 7.7507e-05 0.0973417 1.71221e-06 273.006 
-0.41 -0.27 -0.635551 1.24768 0.0975461 0.0972324 -7.8586e-05 0.0974037 1.71476e-06 272.774 
-0.35 -0.29 -1.03509 1.14895 0.0976125 0.0972571 3.17976e-05 0.097459 1.7137e-06 273.098 
-0.39 -0.27 -0.751468 1.21894 0.0975688 0.0969761 2.67286e-05 0.0972916 1.71168e-06 272.951 
-0.33 -0.29 -1.0224 1.31803 0.0976389 0.0971228 9.78583e-05 0.0973438 1.71181e-06 273.076 
-0.37 -0.27 -0.916772 1.43898 0.0976895 0.0971162 -9.01211e-05 0.0974129 1.71377e-06 272.958 
-0.35 -0.27 -1.09459 1.3498 0.0977594 0.0970734 -1.59254e-05 0.0974656 1.71535e-06 272.853 
-0.41 -0.37 -0.335248 0.629006 0.0975943 0.0973 5.70612e-06 0.097455 1.71432e-06 272.987 
-0.35 -0.37 -0.670205 0.573785 0.0976679 0.0972438 -2.1722e-05 0.0974444 1.71396e-06 273.016 
-0.45 -0.25 -0.459534 1.11451 0.097645 0.0971316 -0.000170547 0.0974226 1.71307e-06 273.096 
-0.37 -0.25 -0.872779 1.54257 0.0976638 0.0970795 -4.46001e-05 0.0973668 1.71356e-06 272.861 
-0.35 -0.25 -0.933914 1.49006 0.0976288 0.0970202 -3.66226e-06 0.0973237 1.71373e-06 272.714 
-0.33 -0.49 -0.369422 0.0364657 0.0973824 0.0972233 0.000127854 0.0973551 1.71257e-06 272.986 
-0.31 -0.49 -0.513235 0.0779239 0.0974619 0.0972653 0.00012118 0.0973659 1.71227e-06 273.065 
-0.29 -0.49 -0.661928 0.0447431 0.0975046 0.0974099 0.000143554 0.0974854 1.71589e-06 272.822 
-0.33 -0.47 -0.460693 0.170422 0.0975583 0.0972551 0.000137727 0.0974469 1.71497e-06 272.861 
-0.27 -0.49 -0.565034 0.0244017 0.097481 0.0973313 0.000210892 0.0974015 1.71391e-06 272.903 
-0.31 -0.47 -0.511422 0.186169 0.0975046 0.0972813 0.000101649 0.0973967 1.7125e-06 273.115 
-0.29 -0.47 -0.670192 0.150756 0.0974863 0.0973469 0.000190654 0.0973809 1.71333e-06 272.937 
-0.27 -0.47 -0.80184 -0.0127461 0.0974915 0.0972273 0.000148666 0.0973658 1.71228e-06 273.063 
-0.31 -0.45 -0.675729 0.377744 0.0974709 0.0973645 0.000110311 0.0974559 1.71369e-06 273.091 
-0.29 -0.45 -0.701778 0.235972 0.0974121 0.0973314 0.000115355 0.0973669 1.71352e-06 272.869 
-0.33 -0.43 -0.59666 0.284317 0.0974096 0.097224 8.60078e-05 0.0973563 1.71164e-06 273.139 
-0.27 -0.45 -0.859751 -0.024044 0.0974496 0.0972397 0.00014606 0.0972788 1.71114e-06 273.001 
-0.31 -0.43 -0.593524 0.380503 0.0974118 0.0972765 0.000110167 0.0973421 1.71236e-06 272.983 
-0.29 -0.43 -0.74663 0.417009 0.0974504 0.0973058 0.000169747 0.0974 1.71136e-06 273.305 
-0.27 -0.43 -0.817146 0.0900685 0.0974614 0.0971945 0.000125556 0.0972955 1.7102e-06 273.198 
-0.31 -0.41 -0.782516 0.451622 0.0975222 0.0971655 9.28033e-05 0.0973174 1.71158e-06 273.038 
-0.29 -0.41 -0.806153 0.476889 0.0976306 0.0973067 6.82998e-05 0.0974424 1.71189e-06 273.339 
-0.27 -0.41 -0.909986 0.159568 0.097626 0.0972164 0.000153272 0.0973768 1.71111e-06 273.28 
-0.31 -0.39 -0.916546 0.466414 0.0978004 0.0972389 3.72552e-05 0.0975015 1.7146e-06 273.073 
-0.29 -0.39 -0.863428 0.541069 0.0976475 0.0972357 0.000158892 0.0974432 1.71341e-06 273.099 
-0.33 -0.37 -0.713384 0.705791 0.0975711 0.0972175 1.70407e-05 0.0974011 1.71223e-06 273.17 
-0.27 -0.39 -1.07784 0.449856 0.0975941 0.0972405 0.000177203 0.0974246 1.71343e-06 273.043 
-0.31 -0.37 -0.861521 0.547914 0.0974704 0.0971391 0.000102773 0.0973143 1.71188e-06 272.982 
-0.29 -0.37 -0.961322 0.550351 0.0974986 0.0971673 0.000165012 0.0973472 1.71269e-06 272.945 
-0.33 -0.35 -0.900778 0.770911 0.0976309 0.0972055 8.80342e-05 0.0974683 1.71362e-06 273.137 
-0.27 -0.37 -1.21835 0.698524 0.0976194 0.0972459 0.000109954 0.0974637 1.71384e-06 273.088 
-0.31 -0.35 -1.10819 0.791346 0.097646 0.0971409 0.000120548 0.0974156 1.71494e-06 272.778 
-0.29 -0.35 -1.47138 0.752012 0.0976431 0.0972113 0.00010773 0.0974064 1.71412e-06 272.883 
-0.27 -0.35 -1.4968 1.05151 0.0976454 0.0972374 7.75848e-05 0.0974118 1.71486e-06 272.78 
-0.31 -0.33 -1.15961 0.999802 0.0976307 0.0970491 0.000101954 0.0974067 1.71409e-06 272.888 
-0.29 -0.33 -1.2212 0.902408 0.0976845 0.0971619 6.99759e-05 0.09745 1.71411e-06 273.007 
-0.33 -0.31 -1.11154 0.990549 0.0976219 0.0971579 0.000105403 0.0973926 1.71387e-06 272.884 
-0.27 -0.33 -1.50581 1.17718 0.0977086 0.0972541 0.00011176 0.0975171 1.71595e-06 272.901 
-0.31 -0.31 -1.23733 0.96037 0.0975953 0.0971038 9.97002e-05 0.0974279 1.71394e-06 272.973 
-0.29 -0.31 -1.43698 1.23149 0.0976309 0.0971899 9.73691e-05 0.0974705 1.71429e-06 273.035 
-0.27 -0.31 -1.52746 1.2072 0.0976376 0.0971678 0.00011425 0.0974317 1.71302e-06 273.129 
-0.31 -0.29 -1.29397 1.12407 0.0976447 0.0971334 7.97742e-05 0.0973354 1.71122e-06 273.146 
-0.29 -0.29 -1.40257 1.35454 0.0977114 0.0971237 5.48203e-05 0.0973944 1.71198e-06 273.191 
-0.27 -0.29 -1.62349 1.31088 0.0977729 0.0971966 0.000129211 0.0974603 1.7133e-06 273.164 
-0.31 -0.27 -1.2404 1.31579 0.0978178 0.0971719 1.7257e-05 0.0974858 1.71299e-06 273.285 
-0.25 -0.29 -1.90845 1.25551 0.097672 0.0972012 0.000216728 0.0974502 1.71408e-06 273.012 
-0.29 -0.27 -1.48642 1.59409 0.0977405 0.097133 5.38909e-05 0.0974152 1.71136e-06 273.348 
-0.27 -0.27 -1.77054 1.52183 0.0976739 0.0970171 0.000154753 0.0973366 1.71165e-06 273.081 
-0.25 -0.27 -2.04612 1.65202 0.0977765 0.0972066 0.000200054 0.0974421 1.71385e-06 273.025 
-0.33 -0.27 -1.23579 1.2889 0.0978139 0.0971551 3.85246e-05 0.0974325 1.71297e-06 273.139 
-0.25 -0.49 -0.539364 -0.124621 0.0974384 0.0973924 0.000197891 0.0974638 1.71369e-06 273.112 
-0.25 -0.47 -0.816282 0.0183108 0.0975922 0.0974479 0.00024661 0.0974876 1.71399e-06 273.131 
-0.25 -0.45 -0.913026 0.226951 0.097459 0.0973589 0.000152988 0.0973555 1.71186e-06 273.101 
-0.25 -0.37 -1.46003 0.607851 0.0975446 0.0972969 0.000141218 0.0974363 1.71283e-06 273.173 
-0.25 -0.35 -1.67799 0.65032 0.0977062 0.0972857 0.000134107 0.0974701 1.71517e-06 272.894 
-0.25 -0.33 -1.62275 0.889993 0.0976581 0.0971593 0.000122041 0.0974467 1.71482e-06 272.885 
-0.25 -0.25 -2.18395 1.822 0.0976885 0.097205 0.000105066 0.0974816 1.71418e-06 273.084 
-0.49 -0.25 -0.133688 0.6778 0.0976484 0.0973566 -0.000151072 0.0975245 1.71361e-06 273.295 
-0.47 -0.25 -0.186695 0.74928 0.0976527 0.0972604 -0.000196575 0.0975163 1.71523e-06 273.013 
-0.49 -0.23 -0.0326401 0.636419 0.0974886 0.0973066 -0.000186247 0.0974365 1.71349e-06 273.068 
-0.47 -0.23 -0.0323769 1.06056 0.0975432 0.097247 -0.000162959 0.0973677 1.71377e-06 272.83 
-0.45 -0.23 -0.218391 1.28297 0.0975606 0.0970663 -0.000171509 0.097345 1.71382e-06 272.759 
-0.49 -0.21 -0.0513252 0.863883 0.097679 0.0973344 -0.000186921 0.0975633 1.71465e-06 273.238 
-0.43 -0.23 -0.460526 1.2205 0.0975854 0.0971807 -0.000105365 0.0973862 1.71386e-06 272.867 
-0.47 -0.21 -0.208145 0.935655 0.0975548 0.0972386 -0.000183123 0.0974184 1.7138e-06 272.967 
-0.41 -0.23 -0.737703 1.45947 0.0976403 0.0971513 -2.02182e-05 0.0974262 1.71419e-06 272.928 
-0.45 -0.21 -0.187642 1.41853 0.0975735 0.0970773 -0.00019246 0.0973694 1.71385e-06 272.823 
-0.49 -0.19 -0.0289941 0.979266 0.097585 0.0972482 -0.000225428 0.0974568 1.71537e-06 272.825 
-0.39 -0.23 -0.762579 1.52225 0.0976444 0.0971233 -8.83544e-05 0.097421 1.71478e-06 272.819 
-0.43 -0.21 -0.456835 1.52442 0.0976156 0.0970737 -0.000164852 0.0973571 1.71375e-06 272.803 
-0.47 -0.19 -0.313674 1.22885 0.0976582 0.0973055 -0.000160047 0.0975029 1.71531e-06 272.964 
-0.41 -0.21 -0.666902 1.6388 0.0976184 0.0970779 -0.00012686 0.0973696 1.71297e-06 272.963 
-0.45 -0.19 -0.594068 1.50893 0.0975997 0.0970942 -0.000172521 0.0973767 1.71266e-06 273.033 
-0.49 -0.17 -0.202558 1.10852 0.0976337 0.0971662 -0.000191551 0.0974329 1.71307e-06 273.124 
-0.39 -0.21 -0.837415 1.53083 0.0976971 0.0970591 -3.65647e-05 0.0973943 1.71179e-06 273.221 
-0.43 -0.19 -0.573829 1.56302 0.0976313 0.0970195 -0.000189359 0.0973762 1.71208e-06 273.123 
-0.47 -0.17 -0.223133 1.39961 0.0975996 0.0972543 -0.000172328 0.0974305 1.71395e-06 272.978 
-0.41 -0.19 -0.563773 1.76969 0.0977085 0.0970068 -0.000166094 0.0973745 1.71261e-06 273.035 
-0.45 -0.17 -0.249254 1.61709 0.0977212 0.0971358 -0.000235692 0.0974557 1.71338e-06 273.139 
-0.49 -0.15 -0.038053 1.28216 0.0973771 0.0971646 -0.000268843 0.0972553 1.71274e-06 272.679 
-0.39 -0.19 -0.934781 1.96921 0.0977776 0.0970604 -6.77979e-05 0.0974387 1.71378e-06 273.028 
-0.43 -0.17 -0.281642 1.60515 0.0977355 0.0970553 -0.000157106 0.0974411 1.71365e-06 273.056 
-0.47 -0.15 -0.263664 1.5214 0.0975778 0.0972733 -0.000315113 0.0974237 1.71321e-06 273.077 
-0.41 -0.17 -0.601328 1.99988 0.0976572 0.0969391 -0.000153491 0.0973404 1.71188e-06 273.055 
-0.45 -0.15 -0.330948 1.5326 0.097538 0.0970962 -0.000239394 0.0973279 1.71255e-06 272.914 
-0.39 -0.17 -0.762774 2.29465 0.097582 0.0969619 -7.31578e-05 0.0973497 1.71222e-06 273.027 
-0.43 -0.15 -0.391389 1.87705 0.0975593 0.0968991 -0.000152458 0.0972417 1.7111e-06 272.902 
-0.41 -0.15 -0.685333 2.15816 0.0975626 0.0969735 -0.000101342 0.0972378 1.71143e-06 272.839 
-0.39 -0.15 -0.892702 2.541 0.0976714 0.096885 -0.000136085 0.0973205 1.71186e-06 273.002 
-0.43 -0.25 -0.43271 1.15409 0.0976649 0.0972097 -6.51271e-05 0.0975248 1.7147e-06 273.122 
-0.41 -0.25 -0.531808 1.30909 0.0976487 0.0971321 -6.75199e-05 0.0974402 1.71416e-06 272.972 
-0.39 -0.25 -0.680982 1.45782 0.0976823 0.097086 -9.01722e-05 0.0973801 1.71343e-06 272.92 
-0.37 -0.23 -0.758665 1.72165 0.0975146 0.0969733 -1.34974e-05 0.0973111 1.71292e-06 272.807 
-0.35 -0.23 -1.15198 1.69548 0.0976413 0.0971453 -9.10108e-05 0.0974128 1.71405e-06 272.912 
-0.33 -0.23 -1.39821 1.64111 0.0975596 0.0970098 -2.20502e-06 0.0972707 1.71156e-06 272.91 
-0.37 -0.21 -1.09258 2.00846 0.0977961 0.0970471 -4.56044e-05 0.0974551 1.71322e-06 273.162 
-0.35 -0.21 -1.20747 1.99404 0.0977094 0.0971604 -8.99155e-05 0.0974595 1.7141e-06 273.035 
-0.33 -0.21 -1.51857 1.95059 0.09771 0.0969278 2.15964e-05 0.0973536 1.71228e-06 273.028 
-0.37 -0.19 -1.27962 2.05778 0.0977645 0.097114 -6.78516e-05 0.0975337 1.7147e-06 273.148 
-0.35 -0.19 -1.37829 2.17589 0.0976973 0.0970092 2.87117e-05 0.0973486 1.71313e-06 272.878 
-0.33 -0.19 -1.52978 2.15 0.0976286 0.0968989 6.44679e-05 0.0973371 1.71041e-06 273.281 
-0.37 -0.17 -1.10616 2.45063 0.0975441 0.0970338 -1.39713e-05 0.0973997 1.71225e-06 273.163 
-0.35 -0.17 -1.59921 2.27644 0.0975759 0.0969575 2.06257e-05 0.0972779 1.70965e-06 273.236 
-0.33 -0.17 -1.73072 2.29735 0.0976562 0.0969226 3.01716e-05 0.0973271 1.71114e-06 273.135 
-0.37 -0.15 -0.998229 2.7946 0.0977164 0.0969745 -4.20578e-05 0.0973572 1.71181e-06 273.112 
-0.35 -0.15 -1.24297 2.59634 0.097644 0.0969808 3.0516e-05 0.0973348 1.71178e-06 273.055 
-0.33 -0.15 -1.59165 2.47982 0.0975994 0.096904 4.71791e-05 0.0971799 1.7094e-06 272.999 
-0.35 -0.13 -1.38355 2.92315 0.0976399 0.096863 4.54702e-05 0.0972772 1.71013e-06 273.157 
-0.33 -0.13 -1.70645 2.78581 0.0976767 0.0969051 9.35371e-05 0.0973234 1.71102e-06 273.145 
-0.33 -0.09 -1.76148 3.4304 0.0974802 0.0967079 5.46287e-05 0.0970949 1.7091e-06 272.81 
-0.37 -0.13 -1.37566 2.89795 0.0976315 0.0968991 -8.76112e-05 0.0972167 1.70972e-06 273.052 
-0.37 -0.11 -1.44866 2.96075 0.0974699 0.0967058 -9.46009e-05 0.0971045 1.70829e-06 272.966 
-0.35 -0.11 -1.58749 3.04812 0.0975208 0.0968198 -1.30433e-05 0.097222 1.70893e-06 273.194 
-0.33 -0.11 -1.73086 3.22431 0.0975084 0.0967936 9.55772e-05 0.0972107 1.71109e-06 272.817 
-0.35 -0.09 -1.60102 3.13943 0.0974228 0.0966658 1.61289e-05 0.0970623 1.70771e-06 272.94 
-0.49 -0.13 0.073608 1.4317 0.0974241 0.0971473 -0.000389665 0.0972661 1.71163e-06 272.887 
-0.47 -0.13 -0.0188819 1.65887 0.0974877 0.0971569 -0.000301219 0.0973065 1.71127e-06 273.057 
-0.45 -0.13 -0.19868 1.59648 0.0975266 0.0970289 -0.000210994 0.0972842 1.71143e-06 272.968 
-0.49 -0.11 0.0712699 1.29911 0.0974687 0.0970964 -0.000362146 0.0972979 1.71254e-06 272.831 
-0.43 -0.13 -0.624235 2.20428 0.0975505 0.0968991 -0.000218724 0.0972222 1.7098e-06 273.056 
-0.47 -0.11 -0.0308668 1.87485 0.0975063 0.0971193 -0.00033781 0.0973754 1.71211e-06 273.116 
-0.41 -0.13 -0.952288 2.49701 0.0975858 0.0969308 -0.000209157 0.0972079 1.70981e-06 273.014 
-0.45 -0.11 -0.516837 2.16707 0.0974416 0.0969585 -0.000253408 0.0971754 1.7091e-06 273.036 
-0.49 -0.09 -0.18028 1.45118 0.0974707 0.0971313 -0.000378679 0.0972902 1.71193e-06 272.905 
-0.39 -0.13 -1.22159 2.67533 0.0976218 0.0969099 -0.000127577 0.0972837 1.71225e-06 272.837 
-0.43 -0.11 -0.831377 2.42372 0.0974355 0.096843 -0.000262362 0.0972168 1.70868e-06 273.218 
-0.47 -0.09 -0.391813 2.05361 0.0974556 0.0970262 -0.000385142 0.0972703 1.71154e-06 272.912 
-0.41 -0.11 -0.930421 2.73869 0.0974563 0.0969085 -0.00021164 0.0972419 1.70965e-06 273.135 
-0.45 -0.09 -0.360533 2.37764 0.0974725 0.0968951 -0.000225001 0.0972269 1.71016e-06 273.01 
-0.39 -0.11 -1.16061 2.96593 0.0974892 0.096846 -0.000128557 0.0972089 1.70973e-06 273.03 
-0.43 -0.09 -0.613852 2.6686 0.0975014 0.0969266 -0.000271195 0.0972137 1.70914e-06 273.137 
-0.41 -0.09 -0.942481 3.03765 0.0974141 0.096784 -0.00020445 0.0970937 1.70852e-06 272.899 
-0.39 -0.09 -1.0911 2.98633 0.0974733 0.096835 -0.00016623 0.0971536 1.71037e-06 272.771 
-0.37 -0.09 -1.27874 3.36275 0.0974465 0.0967004 -0.000114847 0.0970706 1.70796e-06 272.923 
-0.35 -0.03 -1.93287 3.99553 0.097468 0.0965245 -6.98454e-05 0.0970157 1.70656e-06 272.992 
-0.37 -0.07 -1.32515 3.46142 0.0974261 0.0966133 -6.58302e-05 0.0970612 1.70821e-06 272.856 
-0.41 -0.05 -0.944759 3.38193 0.0974736 0.0967272 -0.000227111 0.097121 1.70762e-06 273.119 
-0.45 -0.03 -0.288574 3.17251 0.0973838 0.0967012 -0.000361643 0.0970417 1.70761e-06 272.898 
-0.35 -0.07 -1.55147 3.4202 0.0975486 0.0965668 -5.63783e-05 0.0970532 1.70797e-06 272.872 
-0.39 -0.05 -1.05559 3.55125 0.0974239 0.0966627 -0.000136967 0.0971106 1.70891e-06 272.885 
-0.43 -0.03 -0.524863 3.32638 0.0974391 0.0967955 -0.000241425 0.0971193 1.70862e-06 272.955 
-0.33 -0.07 -1.80605 3.57851 0.0976 0.0967398 3.58285e-05 0.097127 1.7102e-06 272.724 
-0.37 -0.05 -1.51942 3.68975 0.0974169 0.0965643 -0.000103564 0.0970091 1.70825e-06 272.703 
-0.41 -0.03 -1.08323 3.52186 0.0975145 0.0966989 -0.000170552 0.0971239 1.70765e-06 273.123 
-0.35 -0.05 -1.81777 3.82346 0.0974322 0.0965235 -4.51385e-05 0.0969571 1.70751e-06 272.677 
-0.39 -0.03 -1.4745 3.86707 0.097421 0.0965911 -0.000116862 0.0970107 1.70753e-06 272.823 
-0.33 -0.05 -2.17358 3.87448 0.0975011 0.0966061 3.44767e-05 0.0970578 1.70866e-06 272.775 
-0.37 -0.03 -1.65536 4.13971 0.0974945 0.0965112 -9.52037e-05 0.0970104 1.70741e-06 272.842 
-0.33 -0.03 -2.11604 4.04483 0.0974329 0.0965395 2.24437e-06 0.0970124 1.70747e-06 272.837 
-0.33 -0.01 -2.09879 4.14079 0.0974069 0.0964902 -5.01973e-05 0.0969637 1.70561e-06 272.998 
-0.49 -0.07 -0.0714012 1.65851 0.0974184 0.097049 -0.000386239 0.0971944 1.71004e-06 272.939 
-0.47 -0.07 -0.300648 2.18823 0.0974372 0.0969083 -0.000293327 0.0971437 1.7092e-06 272.931 
-0.45 -0.07 -0.539206 2.50378 0.0974271 0.096872 -0.000284605 0.0971286 1.70976e-06 272.798 
-0.49 -0.05 -0.114697 1.9655 0.0973755 0.0968581 -0.000475089 0.0970557 1.7075e-06 272.955 
-0.43 -0.07 -0.647522 2.93003 0.0974843 0.0968935 -0.000282376 0.0971987 1.70934e-06 273.063 
-0.47 -0.05 -0.208518 2.35871 0.0974789 0.096971 -0.000381419 0.0971824 1.71072e-06 272.796 
-0.41 -0.07 -0.848741 3.25292 0.0975315 0.0967192 -0.000195102 0.097125 1.70967e-06 272.802 
-0.45 -0.05 -0.682082 2.7658 0.0974859 0.096796 -0.000299491 0.0971402 1.71e-06 272.792 
-0.49 -0.03 -0.0304644 1.97209 0.0973699 0.0968863 -0.0004578 0.097124 1.70923e-06 272.87 
-0.39 -0.07 -1.15754 3.33661 0.0975242 0.0967842 -0.000193337 0.0971583 1.70868e-06 273.054 
-0.43 -0.05 -0.995686 3.05933 0.0974862 0.0968994 -0.000240868 0.09722 1.70969e-06 273.066 
-0.47 -0.03 -0.105492 2.68831 0.0973491 0.0968841 -0.000377511 0.097067 1.70867e-06 272.8 
-0.27 -0.07 -2.75101 3.71079 0.0975958 0.0967811 0.000190475 0.0971934 1.70885e-06 273.126 
-0.31 -0.05 -2.39523 3.8174 0.0975662 0.0967344 4.28858e-05 0.0971227 1.70871e-06 272.95 
-0.27 -0.09 -2.41829 3.47802 0.0976248 0.09688 5.98212e-05 0.0972655 1.70891e-06 273.319 
-0.31 -0.07 -1.92123 3.65454 0.0975296 0.0966882 5.69237e-05 0.0971078 1.70936e-06 272.804 
-0.29 -0.07 -2.32474 3.67564 0.0976279 0.0968871 0.000136511 0.0972564 1.70859e-06 273.345 
-0.25 -0.07 -2.92263 3.60875 0.0975213 0.0969257 0.000162729 0.0972396 1.70961e-06 273.135 
-0.29 -0.05 -2.59255 3.98503 0.0975384 0.0967447 6.89003e-05 0.0971031 1.70714e-06 273.145 
-0.27 -0.05 -2.62864 4.04269 0.0975489 0.0967462 0.000153164 0.0971504 1.7087e-06 273.029 
-0.31 -0.03 -2.44434 4.11493 0.0974461 0.0967859 2.53524e-05 0.0971179 1.71009e-06 272.715 
-0.25 -0.05 -2.8161 3.68545 0.0974894 0.0968071 0.000264212 0.0971734 1.71009e-06 272.871 
-0.29 -0.03 -2.62996 4.21914 0.0975293 0.0966869 4.21666e-05 0.097081 1.70942e-06 272.719 
-0.27 -0.03 -2.93903 4.07897 0.0974999 0.0966161 0.000194982 0.0971335 1.70865e-06 272.99 
-0.31 -0.01 -2.42522 4.67755 0.0974616 0.0967815 -2.21221e-05 0.0971417 1.70939e-06 272.894 
-0.25 -0.03 -2.96266 3.87729 0.0975544 0.0968602 0.000216946 0.0972336 1.71155e-06 272.808 
-0.29 -0.01 -2.81983 4.35798 0.0973959 0.0965386 0.00010471 0.0970035 1.70651e-06 272.966 
-0.27 -0.01 -2.92011 4.23866 0.0973424 0.0965824 0.000121602 0.0970492 1.70825e-06 272.817 
-0.33 -0.25 -1.11255 1.35037 0.0977133 0.0971419 -4.67577e-05 0.0974075 1.71365e-06 272.96 
-0.31 -0.25 -1.45107 1.71579 0.0977045 0.0971349 2.41368e-05 0.0973999 1.71286e-06 273.065 
-0.29 -0.25 -1.7707 1.8096 0.0976965 0.0970195 0.000170995 0.0974046 1.71289e-06 273.075 
-0.27 -0.25 -2.06119 1.86332 0.09766 0.0969984 0.000174044 0.0973573 1.71326e-06 272.882 
-0.29 -0.11 -2.24863 3.21129 0.0975875 0.0967687 0.000113426 0.0971877 1.71003e-06 272.922 
-0.27 -0.11 -2.51062 3.27335 0.0976114 0.0969693 0.000192643 0.0972779 1.70989e-06 273.197 
-0.31 -0.09 -2.09049 3.32312 0.0975826 0.0968472 0.000107701 0.0972444 1.71017e-06 273.059 
-0.29 -0.09 -2.23808 3.46059 0.0975774 0.0968014 8.91995e-05 0.0972285 1.70928e-06 273.156 
-0.31 -0.23 -1.72904 1.96616 0.0974719 0.0971168 7.84598e-05 0.0973413 1.71222e-06 273.003 
-0.29 -0.23 -1.96531 2.09315 0.0975575 0.0969372 4.52469e-05 0.0973297 1.71236e-06 272.948 
-0.27 -0.23 -1.98628 1.96966 0.09765 0.0970516 0.000121661 0.0973984 1.71249e-06 273.12 
-0.31 -0.21 -1.79316 2.1624 0.0977961 0.0971248 8.32817e-05 0.0974192 1.71403e-06 272.933 
-0.29 -0.21 -1.80364 2.13105 0.0976743 0.0969407 7.1785e-05 0.0973742 1.71368e-06 272.862 
-0.27 -0.21 -1.84952 2.17071 0.097639 0.0970224 4.91352e-05 0.0973809 1.71237e-06 273.09 
-0.31 -0.19 -1.54118 2.28744 0.0976718 0.0970688 2.64402e-05 0.0973735 1.71149e-06 273.21 
-0.25 -0.21 -2.12583 2.01245 0.0976987 0.0971081 0.000151716 0.0973858 1.7117e-06 273.211 
-0.29 -0.19 -1.75778 2.2502 0.0976767 0.0969768 4.23178e-05 0.0973559 1.71274e-06 272.961 
-0.27 -0.19 -2.03938 2.28984 0.0975963 0.0969561 0.000108903 0.0973143 1.71157e-06 273.032 
-0.31 -0.17 -1.87065 2.3684 0.0976464 0.0970239 5.52617e-05 0.0973229 1.71161e-06 273.049 
-0.25 -0.19 -2.15558 2.23906 0.0975054 0.0969812 0.000196149 0.0972659 1.71277e-06 272.705 
-0.29 -0.17 -2.03908 2.46159 0.0975735 0.0968712 0.000188214 0.0972359 1.7098e-06 273.093 
-0.27 -0.17 -2.32019 2.66103 0.0974832 0.0969903 0.000172571 0.0972632 1.71155e-06 272.891 
-0.31 -0.15 -1.90503 2.59748 0.0974964 0.0968935 5.75283e-05 0.097241 1.7105e-06 272.996 
-0.25 -0.17 -2.6431 2.27469 0.0974904 0.0969224 0.000167604 0.0972066 1.71156e-06 272.731 
-0.29 -0.15 -2.19316 2.75458 0.0975396 0.0968831 0.000159612 0.0972491 1.71049e-06 273.02 
-0.27 -0.15 -2.38596 2.82502 0.0976061 0.0969499 0.000213449 0.0972566 1.71181e-06 272.831 
-0.31 -0.13 -1.97865 2.81061 0.0976089 0.0968467 0.00017822 0.0973051 1.71112e-06 273.077 
-0.25 -0.15 -2.6636 2.50206 0.0974697 0.0968875 0.000175013 0.0971844 1.709e-06 273.077 
-0.29 -0.13 -2.17535 3.06892 0.0975798 0.096824 0.000150677 0.0972047 1.71015e-06 272.95 
-0.27 -0.13 -2.44425 2.92532 0.097568 0.0969176 0.00013753 0.097172 1.70939e-06 272.979 
-0.31 -0.11 -2.0252 2.94709 0.0975382 0.0968377 0.000150628 0.0972016 1.70998e-06 272.968 
-0.25 -0.13 -2.5486 2.81018 0.0976687 0.0969619 0.000217426 0.0973019 1.71172e-06 272.973 
-0.25 -0.23 -2.05484 1.85022 0.0976769 0.0971561 0.00013131 0.0973631 1.71417e-06 272.754 
-0.25 -0.11 -2.76289 3.0219 0.0976123 0.0969341 0.000119286 0.0972294 1.71047e-06 272.969 
-0.25 -0.09 -2.775 3.24773 0.097635 0.0969301 0.000166208 0.097302 1.70927e-06 273.364 
-0.25 -0.01 -3.14652 4.04812 0.0973368 0.0968045 0.000193926 0.0970618 1.70841e-06 272.826 
-0.23 -0.49 -0.503642 0.181419 0.0973615 0.0974962 0.000223149 0.0975165 1.71506e-06 273.042 
-0.21 -0.49 -0.757889 -0.0171277 0.0973796 0.0971749 0.000214435 0.0973544 1.71222e-06 273.04 
-0.19 -0.49 -0.806653 0.0218486 0.0974596 0.0974838 0.000234325 0.0974781 1.71379e-06 273.137 
-0.23 -0.47 -1.07858 0.178793 0.0975383 0.0974756 0.000268538 0.0975061 1.71639e-06 272.801 
-0.17 -0.49 -0.714495 -0.197661 0.0974937 0.0974105 0.000250349 0.0974607 1.71406e-06 273.044 
-0.21 -0.47 -1.01321 0.133432 0.0974705 0.0972504 0.000229983 0.0974335 1.71254e-06 273.21 
-0.15 -0.49 -0.693391 0.118772 0.0975122 0.0975186 0.000255164 0.0975748 1.71565e-06 273.111 
-0.19 -0.47 -1.16742 -0.0437907 0.0975511 0.0974212 0.000173139 0.0974347 1.71366e-06 273.035 