ITEM: TIMESTEP
891000
ITEM: NUMBER OF CELLS
2500
ITEM: BOX BOUNDS ss ss pp
-0.5 0.5
-0.5 0.5
-0.5 0.5
ITEM: CELLS xc yc f_U[*] f_V[*] f_Tau[1] f_Tau[2] f_Tau[3] f_Press[*] f_Mrho[*] f_Ttra[*] 
-0.49 -0.49 -0.0779846 0.108235 0.0974181 0.0973035 -4.10814e-05 0.0973612 1.71198e-06 273.098 
-0.47 -0.49 -0.119619 -0.122315 0.0974829 0.0974981 -3.38072e-05 0.0975523 1.71609e-06 272.977 
-0.45 -0.49 -0.00416696 -0.0469893 0.0975224 0.09735 -6.13299e-06 0.0975295 1.71574e-06 272.97 
-0.49 -0.47 -0.0052824 0.0948186 0.0973604 0.0973731 -9.6444e-05 0.0973463 1.71361e-06 272.796 
-0.43 -0.49 0.037582 0.112303 0.0975318 0.0974085 -5.55675e-06 0.0973853 1.71296e-06 273.008 
-0.47 -0.47 0.184449 -0.0563569 0.0974129 0.0973977 5.07363e-05 0.0974208 1.71378e-06 272.978 
-0.41 -0.49 -0.0405013 0.0349674 0.0975136 0.0973787 5.88407e-05 0.0974205 1.71501e-06 272.78 
-0.45 -0.47 -0.0195323 -0.0461602 0.0973961 0.0973781 -1.76945e-05 0.0974634 1.71501e-06 272.902 
-0.49 -0.45 0.0681297 -0.119699 0.0974424 0.097384 -2.74368e-05 0.0973814 1.71252e-06 273.068 
-0.39 -0.49 -0.168881 -0.0409126 0.0974213 0.0972956 7.1987e-05 0.0974469 1.71452e-06 272.933 
-0.43 -0.47 -0.036011 0.106262 0.0973243 0.0973479 4.11468e-05 0.0973311 1.71143e-06 273.101 
-0.47 -0.45 0.130807 -0.0742532 0.0973094 0.0974001 -0.000105136 0.0973402 1.7132e-06 272.845 
-0.37 -0.49 -0.191647 0.0499552 0.0974321 0.0973781 0.000140915 0.0975417 1.71426e-06 273.24 
-0.41 -0.47 -0.275876 0.195644 0.0974596 0.0973873 7.43264e-05 0.0974934 1.71434e-06 273.092 
-0.45 -0.45 0.0573012 0.374259 0.097282 0.0972377 0.000125336 0.0972706 1.71345e-06 272.61 
-0.49 -0.43 -0.0419996 -0.128558 0.0973518 0.0973067 5.5666e-05 0.0973807 1.71293e-06 273 
-0.35 -0.49 -0.4029 0.200045 0.0973927 0.097398 7.02537e-05 0.0975487 1.71545e-06 273.071 
-0.39 -0.47 -0.246336 0.0220511 0.0974929 0.0972917 0.000131016 0.0974569 1.71252e-06 273.28 
-0.43 -0.45 -0.316122 -0.0626325 0.0973393 0.0974842 -3.26758e-05 0.0974673 1.71539e-06 272.851 
-0.47 -0.43 -0.217561 -0.0397095 0.0973737 0.0974376 5.22577e-05 0.097447 1.71351e-06 273.094 
-0.37 -0.47 -0.33326 0.190101 0.0974907 0.0973394 6.01237e-05 0.0974117 1.71175e-06 273.275 
-0.41 -0.45 -0.123802 0.347179 0.0972446 0.0972634 -6.12953e-07 0.0972878 1.7123e-06 272.84 
-0.45 -0.43 -0.321582 0.513907 0.0973629 0.0973432 8.95364e-05 0.0974624 1.71346e-06 273.145 
-0.49 -0.41 0.0894141 -0.0968783 0.0973258 0.0973578 5.8071e-05 0.0973563 1.71363e-06 272.82 
-0.35 -0.47 -0.403623 0.261632 0.0975533 0.0974254 0.000109474 0.097466 1.7133e-06 273.181 
-0.39 -0.45 -0.352798 0.139798 0.0972214 0.0972639 8.13226e-05 0.0972527 1.70994e-06 273.118 
-0.43 -0.43 -0.434233 0.183681 0.0974427 0.0973482 -8.4308e-05 0.0974768 1.71262e-06 273.319 
-0.47 -0.41 -0.0163415 0.251596 0.0973587 0.0973823 -6.66286e-05 0.0973529 1.7137e-06 272.8 
-0.37 -0.45 -0.513055 0.20023 0.0973452 0.0974478 -1.73976e-05 0.0973878 1.71301e-06 273.008 
-0.41 -0.43 -0.539613 0.225706 0.097404 0.0972061 2.31278e-05 0.0973823 1.71263e-06 273.054 
-0.45 -0.41 -0.294707 0.347264 0.0975224 0.0974927 -1.26578e-05 0.0975566 1.71523e-06 273.128 
-0.49 -0.39 -0.207673 0.135579 0.0974469 0.0974528 -5.80564e-05 0.0974996 1.71332e-06 273.271 
-0.35 -0.45 -0.444868 0.197633 0.0972318 0.0972144 0.000126596 0.0972539 1.71142e-06 272.885 
-0.39 -0.43 -0.218188 0.0125596 0.0973978 0.0973232 2.58515e-05 0.097369 1.71277e-06 272.993 
-0.43 -0.41 -0.184491 0.453771 0.0974016 0.0973487 8.00089e-05 0.0974379 1.71272e-06 273.195 
-0.47 -0.39 -0.40164 0.116984 0.0974485 0.0974269 -5.87982e-05 0.0974136 1.71369e-06 272.972 
-0.33 -0.45 -0.462471 0.235517 0.0973724 0.0972825 0.000145344 0.0973201 1.71376e-06 272.699 
-0.37 -0.43 -0.563034 0.518032 0.0975008 0.0973663 8.16576e-05 0.097432 1.71472e-06 272.858 
-0.41 -0.41 -0.437855 0.150749 0.0973176 0.0971604 7.41329e-05 0.0973382 1.71379e-06 272.745 
-0.45 -0.39 -0.216944 0.553995 0.0974972 0.0973165 -9.9099e-05 0.0974031 1.71476e-06 272.771 
-0.35 -0.43 -0.555196 0.173301 0.0974698 0.0972929 0.000136896 0.0973947 1.71274e-06 273.07 
-0.39 -0.41 -0.717761 0.304854 0.0974449 0.0974627 -2.31097e-05 0.0974796 1.71434e-06 273.053 
-0.43 -0.39 -0.122847 0.442149 0.0976183 0.0973055 6.43103e-05 0.0975083 1.71544e-06 272.959 
-0.37 -0.41 -0.560821 0.462693 0.0972704 0.0971558 5.27268e-05 0.0972566 1.70939e-06 273.217 
-0.41 -0.39 -0.294458 0.38286 0.0976409 0.0973263 7.45708e-05 0.0975167 1.71403e-06 273.207 
-0.35 -0.41 -0.641476 0.156985 0.0973338 0.0972416 3.14432e-05 0.0973377 1.71177e-06 273.065 
-0.39 -0.39 -0.561409 0.451004 0.0975976 0.097472 3.61167e-05 0.0975629 1.71436e-06 273.283 
-0.33 -0.41 -0.57359 0.39856 0.0974278 0.097359 3.24314e-05 0.0973944 1.71257e-06 273.097 
-0.37 -0.39 -0.417415 0.27952 0.0974544 0.0971174 7.26793e-05 0.0973489 1.71067e-06 273.272 
-0.35 -0.39 -0.244851 0.297087 0.0974329 0.0972548 7.05161e-05 0.0974101 1.71099e-06 273.393 
-0.33 -0.39 -0.411713 0.350766 0.0975286 0.0973332 4.10775e-05 0.0974453 1.71405e-06 273.003 
-0.37 -0.37 -0.576204 0.186589 0.0976543 0.0972187 0.00010015 0.0973779 1.71292e-06 272.994 
-0.49 -0.37 -0.0618566 0.282687 0.0976004 0.0975102 -0.000125958 0.0975971 1.71676e-06 272.996 
-0.47 -0.37 -0.051629 0.387338 0.0975176 0.0974118 -5.42591e-05 0.0975306 1.71468e-06 273.142 
-0.45 -0.37 -0.259075 0.277297 0.0974174 0.0971247 -4.37437e-05 0.0972691 1.71324e-06 272.639 
-0.49 -0.35 -0.126574 0.519161 0.0975617 0.0974301 -1.08805e-05 0.0975474 1.71421e-06 273.265 
-0.43 -0.37 -0.322819 0.540923 0.0974942 0.0972715 -3.27157e-05 0.0974388 1.71552e-06 272.751 
-0.47 -0.35 -0.35672 0.234135 0.0975579 0.0973518 1.03487e-05 0.0974385 1.71486e-06 272.856 
-0.45 -0.35 -0.0884675 0.510721 0.0976535 0.097273 -1.49642e-05 0.097436 1.71301e-06 273.143 
-0.49 -0.33 -0.0731454 0.626254 0.0974325 0.0973134 -0.000129181 0.0974499 1.71417e-06 272.996 
-0.39 -0.37 -0.369166 0.389083 0.0975996 0.0973256 4.78649e-05 0.0975185 1.71284e-06 273.401 
-0.43 -0.35 -0.276004 0.656917 0.097575 0.0971956 -3.78241e-05 0.0974476 1.71314e-06 273.154 
-0.47 -0.33 0.163844 0.294037 0.0974636 0.0973221 -9.17206e-06 0.0974098 1.71244e-06 273.161 
-0.41 -0.35 -0.204325 0.504464 0.0975462 0.0973516 -3.46272e-05 0.0975415 1.71544e-06 273.051 
-0.45 -0.33 -0.0204997 0.426784 0.0974763 0.0973573 -7.70128e-05 0.0974693 1.71404e-06 273.072 
-0.49 -0.31 0.121773 0.684967 0.0972582 0.0972694 -0.00013901 0.0972837 1.71106e-06 273.027 
-0.39 -0.35 -0.337631 0.555225 0.0975481 0.0972485 1.29998e-05 0.0975214 1.71382e-06 273.253 
-0.43 -0.33 -0.0877172 0.727977 0.0974488 0.0970833 -8.8099e-05 0.0973376 1.71233e-06 272.975 
-0.47 -0.31 -0.214785 0.257145 0.0973675 0.0972766 -6.51768e-05 0.097373 1.71027e-06 273.404 
-0.37 -0.35 -0.38756 0.349162 0.0976008 0.0972233 8.48673e-05 0.0974335 1.71256e-06 273.208 
-0.41 -0.33 -0.2929 0.657774 0.0974874 0.0973463 -1.94182e-05 0.0974424 1.7134e-06 273.099 
-0.45 -0.31 -0.202602 0.495657 0.0974387 0.0973983 -1.35181e-05 0.0974846 1.7128e-06 273.312 
-0.49 -0.29 -0.0101413 0.62226 0.097536 0.0972643 -9.14176e-05 0.0974401 1.71416e-06 272.971 
-0.35 -0.35 -0.694306 0.430196 0.0975428 0.0973714 -1.7463e-05 0.0974691 1.7153e-06 272.871 
-0.39 -0.33 -0.371979 0.7163 0.0975111 0.09713 -3.43703e-05 0.0974061 1.71134e-06 273.325 
-0.43 -0.31 -0.131822 0.77706 0.0974022 0.097228 -8.42318e-05 0.097301 1.71192e-06 272.938 
-0.47 -0.29 -0.0710663 0.752683 0.0975261 0.097128 -0.000166587 0.0973454 1.71096e-06 273.216 
-0.37 -0.33 -0.680238 0.702297 0.0975854 0.0972976 2.95253e-05 0.0974955 1.71449e-06 273.074 
-0.41 -0.31 -0.21785 0.890131 0.0974806 0.0972744 -0.000164545 0.0973635 1.71264e-06 272.999 
-0.45 -0.29 -0.47833 0.5707 0.0975605 0.0974818 -5.86794e-05 0.0975954 1.71486e-06 273.294 
-0.49 -0.27 -0.152075 0.776504 0.0976245 0.0974052 -0.000104706 0.0974802 1.71287e-06 273.29 
-0.35 -0.33 -1.04224 0.726225 0.0976786 0.0973472 0.000131815 0.0975613 1.71424e-06 273.297 
-0.39 -0.31 -0.419002 0.846072 0.0975398 0.0971391 1.3143e-06 0.0973966 1.71137e-06 273.294 
-0.43 -0.29 -0.608928 0.578089 0.0976552 0.0972814 -0.000111931 0.0975663 1.71412e-06 273.33 
-0.47 -0.27 -0.2521 0.610766 0.0976452 0.0971784 -0.000214516 0.097365 1.71232e-06 273.053 
-0.33 -0.33 -1.16386 0.798537 0.0976025 0.097166 8.39598e-05 0.0974234 1.71305e-06 273.101 
-0.37 -0.31 -0.806872 1.2388 0.097483 0.0971343 -3.27362e-05 0.0973524 1.71215e-06 273.045 
-0.41 -0.29 -0.657205 1.14842 0.0976127 0.0972588 -6.54151e-05 0.0975014 1.71504e-06 273.003 
-0.45 -0.27 -0.0138873 1.00362 0.0976501 0.0973635 -0.000128415 0.097553 1.71289e-06 273.49 
-0.35 -0.31 -1.14474 0.857527 0.0974322 0.0973385 9.22933e-05 0.0974263 1.71168e-06 273.328 
-0.39 -0.29 -0.826614 0.908016 0.097391 0.0970176 -0.000120489 0.0972554 1.71127e-06 272.914 
-0.43 -0.27 -0.43468 0.857826 0.097573 0.097193 -0.000110457 0.0974326 1.71422e-06 272.941 
-0.37 -0.29 -0.572894 1.4499 0.0974278 0.097063 4.32211e-06 0.0972424 1.71049e-06 273.003 
-0.41 -0.27 -0.656514 1.0801 0.0976243 0.0973101 -4.55334e-05 0.0974639 1.71641e-06 272.679 
-0.35 -0.29 -0.854187 0.993298 0.0976167 0.0973214 -2.56637e-05 0.0975168 1.71419e-06 273.181 
-0.39 -0.27 -0.552405 1.05244 0.0977059 0.0969872 -3.66392e-05 0.0973874 1.71411e-06 272.832 
-0.33 -0.29 -0.969831 1.27592 0.0975632 0.0970849 0.000146722 0.0973158 1.71151e-06 273.045 
-0.37 -0.27 -0.803021 1.53531 0.0977454 0.0970678 -0.000100626 0.0974419 1.71547e-06 272.768 
-0.35 -0.27 -1.10917 1.27891 0.097717 0.0970578 -7.19364e-06 0.0974412 1.71567e-06 272.733 
-0.41 -0.37 -0.313312 0.697934 0.0975371 0.0973515 3.15899e-05 0.0975151 1.71497e-06 273.053 
-0.35 -0.37 -0.529754 0.22749 0.0976931 0.0972968 -2.2119e-05 0.0974618 1.71506e-06 272.889 
-0.45 -0.25 -0.358303 1.01348 0.0976489 0.0972239 -0.000200107 0.0974844 1.71441e-06 273.055 
-0.37 -0.25 -0.892059 1.41636 0.0977213 0.097019 -7.72385e-06 0.0973699 1.71422e-06 272.766 
-0.35 -0.25 -0.693762 1.48615 0.0977461 0.0970133 5.99968e-05 0.0974491 1.71707e-06 272.534 
-0.33 -0.49 -0.541669 -0.0036837 0.0973353 0.0973521 0.000110223 0.0973883 1.71459e-06 272.758 
-0.31 -0.49 -0.645671 0.0674338 0.0974434 0.0972063 0.000204659 0.0973644 1.71217e-06 273.076 
-0.29 -0.49 -0.824583 -0.0336515 0.0975358 0.0974775 0.000136139 0.0975488 1.71611e-06 272.964 
-0.33 -0.47 -0.411121 0.147262 0.0975536 0.0972226 0.000143235 0.0973929 1.71536e-06 272.648 
-0.27 -0.49 -0.575735 0.0744232 0.0975629 0.0974923 0.000193538 0.097517 1.71525e-06 273.013 
-0.31 -0.47 -0.568175 0.12271 0.0974222 0.0972867 0.000133848 0.0973368 1.71213e-06 273.005 
-0.29 -0.47 -0.591473 0.104118 0.0974684 0.097434 0.0001475 0.0974225 1.71428e-06 272.903 
-0.27 -0.47 -0.810386 -0.0131267 0.0974072 0.0972892 0.000145496 0.0973848 1.71428e-06 272.797 
-0.31 -0.45 -0.44021 0.308629 0.0975186 0.097407 8.74363e-05 0.0974774 1.71405e-06 273.093 
-0.29 -0.45 -0.509227 0.100308 0.0974773 0.0973873 0.000130815 0.0974563 1.71437e-06 272.983 
-0.33 -0.43 -0.660728 0.311764 0.0974325 0.0972396 9.11231e-05 0.0974187 1.71298e-06 273.099 
-0.27 -0.45 -0.725366 -0.0473383 0.0974457 0.0973356 0.000182488 0.0973414 1.71129e-06 273.151 
-0.31 -0.43 -0.615117 0.152054 0.0973924 0.0973417 5.27178e-05 0.0973767 1.71304e-06 272.972 
-0.29 -0.43 -0.671403 0.239075 0.0974039 0.0972646 0.000154613 0.0973763 1.71148e-06 273.22 
-0.27 -0.43 -0.573557 0.0323478 0.0975075 0.0972248 0.000248176 0.0973416 1.71014e-06 273.336 
-0.31 -0.41 -0.565849 0.220142 0.0974222 0.0971818 8.38189e-05 0.0972801 1.71077e-06 273.063 
-0.29 -0.41 -0.744644 0.290133 0.0974398 0.0972566 0.000110412 0.0973464 1.71024e-06 273.333 
-0.27 -0.41 -0.963454 0.000525491 0.0973612 0.0972542 0.000149865 0.0972186 1.70909e-06 273.158 
-0.31 -0.39 -0.790594 0.454298 0.0975286 0.0971749 3.29217e-05 0.0972869 1.7143e-06 272.52 
-0.29 -0.39 -0.798565 0.404943 0.0974895 0.0972169 8.60501e-05 0.0973342 1.71222e-06 272.984 
-0.33 -0.37 -0.639186 0.76472 0.097629 0.0972639 8.55696e-06 0.0974825 1.71362e-06 273.176 
-0.27 -0.39 -1.03084 0.348991 0.0975229 0.0973027 0.000134452 0.097409 1.71285e-06 273.093 
-0.31 -0.37 -0.874737 0.538061 0.0975464 0.0971973 8.27492e-05 0.0973471 1.71135e-06 273.158 
-0.29 -0.37 -1.0378 0.451945 0.097471 0.0971093 0.000184927 0.0973768 1.71139e-06 273.235 
-0.33 -0.35 -0.786 0.870088 0.0976743 0.0971564 9.55072e-05 0.0974594 1.71369e-06 273.1 
-0.27 -0.37 -1.33912 0.703856 0.0975868 0.0972356 8.95777e-05 0.0974069 1.71209e-06 273.208 
-0.31 -0.35 -0.93999 0.811466 0.0976656 0.0971712 0.000169169 0.0973896 1.71413e-06 272.834 
-0.29 -0.35 -1.33062 0.685259 0.0976133 0.0972054 8.89473e-05 0.0973766 1.71312e-06 272.958 
-0.27 -0.35 -1.47292 1.10119 0.0975503 0.0972372 7.51806e-05 0.0973424 1.71406e-06 272.713 
-0.31 -0.33 -1.08825 1.00355 0.0975834 0.0969525 9.70705e-05 0.097312 1.71357e-06 272.706 
-0.29 -0.33 -1.19581 0.857615 0.0975867 0.0972308 0.000175052 0.0974772 1.71408e-06 273.088 
-0.33 -0.31 -1.27918 0.839556 0.0975567 0.0971518 5.07851e-05 0.0973069 1.71252e-06 272.859 
-0.27 -0.33 -1.43741 1.22754 0.0976379 0.0972408 0.000168183 0.0975209 1.71566e-06 272.958 
-0.31 -0.31 -1.20463 0.890576 0.0975148 0.0970147 0.000141891 0.0973646 1.71462e-06 272.687 
-0.29 -0.31 -1.40683 1.30359 0.0976673 0.0972363 7.84197e-05 0.0975245 1.71564e-06 272.971 
-0.27 -0.31 -1.59514 1.287 0.097701 0.0971848 0.00016116 0.0974716 1.71292e-06 273.258 
-0.31 -0.29 -1.41066 0.924028 0.0976156 0.0970592 9.02597e-05 0.0973386 1.71208e-06 273.017 
-0.29 -0.29 -1.34551 1.37956 0.0976233 0.0971629 5.76388e-05 0.097423 1.71394e-06 272.959 
-0.27 -0.29 -1.51769 1.32377 0.0976859 0.097254 7.02528e-05 0.0974825 1.71424e-06 273.077 
-0.31 -0.27 -1.09367 1.26773 0.0976955 0.0971592 5.65508e-05 0.097412 1.71196e-06 273.244 
-0.25 -0.29 -1.77198 1.26065 0.0976158 0.0972626 0.000269097 0.0974434 1.71367e-06 273.058 
-0.29 -0.27 -1.36623 1.49554 0.0976611 0.09719 3.3503e-05 0.0973906 1.71014e-06 273.473 
-0.27 -0.27 -1.8117 1.57919 0.0975614 0.0970899 0.00013679 0.0973392 1.71072e-06 273.236 
-0.25 -0.27 -2.15043 1.77665 0.0976062 0.0971815 0.00017284 0.0973293 1.71156e-06 273.075 
-0.33 -0.27 -1.17627 1.23414 0.0977457 0.097034 9.72071e-05 0.0973441 1.71268e-06 272.938 
-0.25 -0.49 -0.659279 -0.168792 0.0974582 0.0975087 0.000260252 0.097528 1.71614e-06 272.902 
-0.25 -0.47 -0.686923 0.0542462 0.097572 0.0975346 0.000309112 0.0974436 1.7143e-06 272.958 
-0.25 -0.45 -0.768037 0.13607 0.0973228 0.0973884 0.000191003 0.0972594 1.70873e-06 273.33 
-0.25 -0.37 -1.5848 0.708693 0.097543 0.0973206 9.43328e-05 0.0974633 1.71187e-06 273.401 
-0.25 -0.35 -1.53754 0.512087 0.0976006 0.0972701 0.000147959 0.0974426 1.71418e-06 272.975 
-0.25 -0.33 -1.68276 0.904331 0.0975709 0.0971689 6.80941e-05 0.0974494 1.71322e-06 273.146 
-0.25 -0.25 -2.31761 1.83814 0.0978663 0.097337 1.7683e-05 0.0976427 1.71572e-06 273.289 
-0.49 -0.25 0.0751373 0.773496 0.0977157 0.0973739 -8.45372e-05 0.0975713 1.71382e-06 273.394 
-0.47 -0.25 0.0347133 0.629467 0.0975957 0.0971871 -0.000166895 0.0974154 1.71261e-06 273.148 
-0.49 -0.23 -0.0390024 0.605312 0.0973988 0.0972904 -0.000177485 0.0973148 1.71086e-06 273.145 
-0.47 -0.23 0.14126 0.906798 0.0975937 0.0972668 -0.000187808 0.0973888 1.71249e-06 273.093 
-0.45 -0.23 -0.0617769 1.29647 0.0975476 0.0970718 -0.000236875 0.0973382 1.71099e-06 273.191 
-0.49 -0.21 -0.0744991 0.79932 0.097642 0.0973929 -0.000190683 0.0976046 1.71553e-06 273.214 
-0.43 -0.23 -0.423892 1.05568 0.0976604 0.0972478 -0.000139778 0.0974173 1.71289e-06 273.11 
-0.47 -0.21 -0.270037 0.691879 0.0975086 0.09736 -0.000125374 0.0975219 1.71528e-06 273.021 
-0.41 -0.23 -0.568425 1.49671 0.0976708 0.0971532 -5.399e-05 0.09745 1.71452e-06 272.942 
-0.45 -0.21 -0.0531219 1.2834 0.0975655 0.0970948 -0.000294921 0.0974192 1.71386e-06 272.96 
-0.49 -0.19 -0.029002 0.959852 0.0975819 0.0971878 -0.000210941 0.0974014 1.71461e-06 272.79 
-0.39 -0.23 -0.604206 1.27992 0.0976197 0.0971124 -4.14481e-05 0.097384 1.71458e-06 272.747 
-0.43 -0.21 -0.321464 1.59364 0.097603 0.0970809 -0.000219414 0.0973722 1.7133e-06 272.917 
-0.47 -0.19 -0.364695 0.914379 0.097747 0.0974497 -0.000226109 0.0975858 1.71787e-06 272.789 
-0.41 -0.21 -0.549092 1.38336 0.097588 0.0970835 -9.76273e-05 0.0973344 1.71195e-06 273.028 
-0.45 -0.19 -0.861896 1.44297 0.0976378 0.0971647 -0.000252109 0.0974388 1.71338e-06 273.092 
-0.49 -0.17 -0.153899 1.01494 0.097538 0.0971884 -0.000235919 0.0973776 1.71229e-06 273.094 
-0.39 -0.21 -0.553828 1.42423 0.0976554 0.0970257 -1.56674e-05 0.0973598 1.7098e-06 273.442 
-0.43 -0.19 -0.602771 1.44681 0.0976743 0.0969941 -0.000206418 0.0974211 1.71158e-06 273.329 
-0.47 -0.17 -0.282805 1.21602 0.0975686 0.0973688 -0.000240209 0.0974802 1.71417e-06 273.082 
-0.41 -0.19 -0.386629 1.36141 0.0977072 0.097005 -0.000127821 0.0973789 1.71241e-06 273.079 
-0.45 -0.17 -0.226604 1.57623 0.0976987 0.0972062 -0.000271333 0.0974821 1.71349e-06 273.196 
-0.49 -0.15 0.0408759 1.09253 0.0974783 0.0972572 -0.000338291 0.097352 1.71603e-06 272.427 
-0.39 -0.19 -0.96578 1.96959 0.0977899 0.0970069 -7.74758e-05 0.0973267 1.71005e-06 273.309 
-0.43 -0.17 -0.304979 1.26963 0.097633 0.0969949 -0.000183542 0.0973845 1.71123e-06 273.282 
-0.47 -0.15 -0.187765 1.37737 0.0976605 0.0973435 -0.00034029 0.0975209 1.71533e-06 273.012 
-0.41 -0.17 -0.753502 1.89026 0.0976421 0.096907 -0.00021964 0.0972387 1.71031e-06 273.02 
-0.45 -0.15 -0.277127 1.42963 0.0975957 0.0971809 -0.000220303 0.0973613 1.71312e-06 272.915 
-0.39 -0.17 -1.0693 2.18255 0.0976093 0.0968888 -9.9575e-05 0.0972765 1.71004e-06 273.17 
-0.43 -0.15 -0.349605 1.73687 0.0976256 0.0968672 -0.000142128 0.0972692 1.70992e-06 273.168 
-0.41 -0.15 -0.888452 2.23643 0.0975645 0.0969338 -0.000165891 0.0972279 1.71108e-06 272.866 
-0.39 -0.15 -0.992779 2.37003 0.0976205 0.0967754 -0.000116265 0.0972666 1.71109e-06 272.974 
-0.43 -0.25 -0.337981 1.05218 0.0977175 0.0971737 -0.000104087 0.0975214 1.71327e-06 273.341 
-0.41 -0.25 -0.518542 1.25738 0.0977109 0.0972293 -0.000141325 0.0975279 1.71469e-06 273.132 
-0.39 -0.25 -0.718206 1.33157 0.0977526 0.0970413 -7.646e-05 0.0973536 1.71333e-06 272.86 
-0.37 -0.23 -0.640291 1.66906 0.0975823 0.0969664 -1.07075e-05 0.0973516 1.7148e-06 272.621 
-0.35 -0.23 -1.21365 1.69937 0.0976161 0.0970963 -5.79693e-05 0.0973512 1.71418e-06 272.718 
-0.33 -0.23 -1.51819 1.61983 0.0975037 0.0969724 -2.29094e-05 0.0972659 1.71074e-06 273.027 
-0.37 -0.21 -1.01728 2.09956 0.0977007 0.0970261 -3.95526e-05 0.0974386 1.71275e-06 273.192 
-0.35 -0.21 -1.28432 2.17293 0.0976895 0.0970982 -5.1974e-05 0.0973818 1.71286e-06 273.015 
-0.33 -0.21 -1.45132 1.87928 0.0977825 0.0969933 1.35411e-05 0.0973944 1.71334e-06 272.974 
-0.37 -0.19 -1.24283 2.17511 0.0978075 0.0970347 -2.70576e-05 0.0975312 1.71437e-06 273.192 
-0.35 -0.19 -1.26999 2.27796 0.0977051 0.0970123 7.50038e-05 0.0973507 1.7144e-06 272.682 
-0.33 -0.19 -1.38351 2.06334 0.0976228 0.0969171 9.02128e-05 0.0972845 1.71074e-06 273.081 
-0.37 -0.17 -1.13268 2.48865 0.0976247 0.0969563 -2.29757e-06 0.0973589 1.71147e-06 273.172 
-0.35 -0.17 -1.58945 2.28366 0.0976865 0.0970021 0.000102921 0.0973503 1.70954e-06 273.457 
-0.33 -0.17 -1.84639 2.3918 0.0977484 0.0970257 2.03476e-05 0.0973684 1.71084e-06 273.3 
-0.37 -0.15 -1.07937 2.6475 0.0975689 0.0968318 -6.06242e-05 0.0971974 1.7079e-06 273.289 
-0.35 -0.15 -1.32588 2.65368 0.0976376 0.0970191 -3.85113e-05 0.0973692 1.70995e-06 273.445 
-0.33 -0.15 -1.61694 2.63458 0.0976414 0.0969966 6.37858e-05 0.0972336 1.70879e-06 273.248 
-0.35 -0.13 -1.50195 2.98234 0.0976554 0.0968225 -1.55816e-05 0.0972247 1.71053e-06 272.945 
-0.33 -0.13 -1.85341 2.83794 0.0976216 0.0968855 9.28565e-05 0.0972793 1.71228e-06 272.82 
-0.33 -0.09 -1.94368 3.47869 0.0974229 0.0965998 5.4152e-05 0.0970142 1.70883e-06 272.626 
-0.37 -0.13 -1.59838 2.71822 0.0976745 0.0968941 -0.000125303 0.0972032 1.71027e-06 272.926 
-0.37 -0.11 -1.50011 2.75323 0.0974835 0.0966993 -0.000118395 0.0970584 1.70739e-06 272.98 
-0.35 -0.11 -1.75548 3.09961 0.0974284 0.0967805 -3.41983e-05 0.0971412 1.70844e-06 273.046 
-0.33 -0.11 -1.83413 3.33668 0.0974267 0.0966902 0.000115726 0.0971299 1.71082e-06 272.634 
-0.35 -0.09 -1.65495 3.22418 0.0974568 0.0966745 3.42856e-05 0.0970917 1.7083e-06 272.928 
-0.49 -0.13 0.00734234 1.27852 0.0974175 0.0972546 -0.00048815 0.0973011 1.71123e-06 273.049 
-0.47 -0.13 -0.00843772 1.52041 0.0974279 0.097147 -0.00035484 0.0973037 1.71135e-06 273.037 
-0.45 -0.13 -0.250217 1.53142 0.0975192 0.0971404 -0.000173712 0.0972534 1.7117e-06 272.839 
-0.49 -0.11 0.0332951 1.16449 0.0976476 0.0972409 -0.000416731 0.0974874 1.71513e-06 272.949 
-0.43 -0.13 -0.789838 2.10087 0.0975291 0.0967825 -0.000221669 0.0971684 1.70815e-06 273.168 
-0.47 -0.11 -0.0931226 1.69734 0.097604 0.097041 -0.000342895 0.0973555 1.71251e-06 272.997 
-0.41 -0.13 -0.941292 2.61467 0.0975776 0.0969921 -0.000239552 0.097289 1.7118e-06 272.924 
-0.45 -0.11 -0.529565 2.15249 0.0974717 0.0969578 -0.000246966 0.0972261 1.71018e-06 273.005 
-0.49 -0.09 -0.118362 1.28014 0.0974564 0.097157 -0.000387456 0.0972873 1.7114e-06 272.983 
-0.39 -0.13 -1.33532 2.45933 0.0976093 0.0967944 -0.000118467 0.0972299 1.71048e-06 272.968 
-0.43 -0.11 -0.857629 2.34713 0.0974205 0.0968498 -0.000254055 0.0971987 1.70791e-06 273.292 
-0.47 -0.09 -0.470934 2.01678 0.0974237 0.096923 -0.000326159 0.0971175 1.70863e-06 272.947 
-0.41 -0.11 -1.03808 2.84626 0.0974697 0.0968724 -0.000264999 0.0972137 1.70886e-06 273.181 
-0.45 -0.09 -0.438415 2.26243 0.0974408 0.0968991 -0.000236 0.0972464 1.71078e-06 272.967 
-0.39 -0.11 -1.26799 2.83853 0.0974661 0.0968224 -0.000103496 0.0971308 1.70854e-06 272.999 
-0.43 -0.09 -0.555579 2.57588 0.0975728 0.0970324 -0.000285152 0.0972554 1.70858e-06 273.343 
-0.41 -0.09 -0.916415 3.09695 0.097375 0.0966009 -0.000201073 0.0969693 1.70546e-06 273.038 
-0.39 -0.09 -1.02016 2.84629 0.0975312 0.0968033 -0.000155299 0.0971139 1.7097e-06 272.767 
-0.37 -0.09 -1.33442 3.34665 0.0975003 0.0967136 -6.40811e-05 0.0970871 1.7079e-06 272.979 
-0.35 -0.03 -1.76714 4.05161 0.0974261 0.0964644 -4.2391e-05 0.0970031 1.70461e-06 273.269 
-0.37 -0.07 -1.39048 3.31688 0.0974197 0.0965793 -9.73408e-05 0.0970605 1.70798e-06 272.892 
-0.41 -0.05 -0.996118 3.44919 0.0973281 0.0965969 -0.000235131 0.0969813 1.70506e-06 273.136 
-0.45 -0.03 -0.369637 3.00845 0.0972948 0.0966287 -0.000412945 0.0970159 1.70655e-06 272.994 
-0.35 -0.07 -1.66381 3.57494 0.0975866 0.0965517 1.98153e-05 0.0970945 1.70845e-06 272.912 
-0.39 -0.05 -0.901074 3.48959 0.0973838 0.0965912 -0.000200573 0.0970497 1.7094e-06 272.635 
-0.43 -0.03 -0.689484 3.41018 0.0974263 0.0967684 -0.000203603 0.0971039 1.70772e-06 273.056 
-0.33 -0.07 -1.76083 3.49144 0.0975881 0.0966842 8.43538e-05 0.0971359 1.70989e-06 272.798 
-0.37 -0.05 -1.44047 3.76535 0.0973959 0.0965962 -9.88033e-05 0.0969736 1.70729e-06 272.758 
-0.41 -0.03 -1.06288 3.38965 0.0974549 0.0966996 -0.000159937 0.0970727 1.70646e-06 273.168 
-0.35 -0.05 -1.71479 3.8403 0.0973081 0.0963485 -1.66234e-05 0.0968553 1.70546e-06 272.716 
-0.39 -0.03 -1.47625 3.75211 0.0972867 0.0964725 -0.000123074 0.0968439 1.70652e-06 272.516 
-0.33 -0.05 -2.12742 3.90642 0.0975154 0.0966257 7.20363e-05 0.0971074 1.70972e-06 272.746 
-0.37 -0.03 -1.41164 4.13444 0.0973734 0.0964843 -0.000119362 0.0969667 1.70682e-06 272.813 
-0.33 -0.03 -1.96375 4.20452 0.097368 0.0964942 -2.26759e-06 0.0969429 1.70559e-06 272.942 
-0.33 -0.01 -2.02851 4.12525 0.0974583 0.0963556 -5.80818e-05 0.0968953 1.70494e-06 272.913 
-0.49 -0.07 -0.220263 1.49645 0.0972831 0.0970606 -0.000420323 0.0971656 1.70908e-06 273.011 
-0.47 -0.07 -0.438511 2.23594 0.097349 0.096794 -0.000331186 0.0970749 1.70808e-06 272.917 
-0.45 -0.07 -0.579628 2.25247 0.097404 0.0968893 -0.00033289 0.0971431 1.70942e-06 272.893 
-0.49 -0.05 -0.0927042 1.8719 0.0973717 0.0968782 -0.00049558 0.097105 1.7085e-06 272.934 
-0.43 -0.07 -0.624726 2.76339 0.0974804 0.0969565 -0.000299365 0.0971812 1.70764e-06 273.285 
-0.47 -0.05 -0.0375609 2.29228 0.0974129 0.0969274 -0.000448831 0.0971836 1.711e-06 272.755 
-0.41 -0.07 -0.836204 3.39037 0.0975835 0.0966407 -0.00017495 0.0970334 1.70766e-06 272.866 
-0.45 -0.05 -0.42052 2.52311 0.0974507 0.0968355 -0.000339794 0.097214 1.71058e-06 272.907 
-0.49 -0.03 -0.0514723 2.02343 0.0973713 0.0968352 -0.00048749 0.0971564 1.70857e-06 273.066 
-0.39 -0.07 -1.18121 3.37971 0.0975174 0.0967147 -0.000187964 0.0970517 1.7073e-06 272.976 
-0.43 -0.05 -0.952648 2.99578 0.0974087 0.0969466 -0.000257394 0.0971807 1.709e-06 273.067 
-0.47 -0.03 -0.0818499 2.31457 0.0974019 0.0968922 -0.000422843 0.0970744 1.7078e-06 272.96 
-0.27 -0.07 -2.85018 3.89589 0.0976355 0.096772 0.000217349 0.0972135 1.70905e-06 273.151 
-0.31 -0.05 -2.32353 3.77127 0.0976408 0.0967615 0.000108369 0.0972069 1.71102e-06 272.817 
-0.27 -0.09 -2.33994 3.54696 0.09758 0.0968949 0.000206655 0.0972585 1.70863e-06 273.345 
-0.31 -0.07 -1.97403 3.51899 0.097508 0.0967653 0.00012523 0.0972359 1.71173e-06 272.786 
-0.29 -0.07 -2.49637 3.8028 0.0975165 0.0967834 0.00015894 0.0971653 1.70752e-06 273.259 
-0.25 -0.07 -2.86981 3.26431 0.0975842 0.0971302 0.000199175 0.0973502 1.71117e-06 273.196 
-0.29 -0.05 -2.63936 4.13809 0.0976326 0.0967306 0.000107776 0.0971415 1.70746e-06 273.203 
-0.27 -0.05 -2.48013 3.94518 0.0975802 0.0967225 8.99283e-05 0.0971778 1.70887e-06 273.078 
-0.31 -0.03 -2.41504 4.09422 0.0973639 0.0967845 1.56783e-05 0.0971133 1.71121e-06 272.524 
-0.25 -0.05 -2.70219 3.55019 0.0975062 0.0969513 0.000275862 0.0971979 1.71022e-06 272.921 
-0.29 -0.03 -2.42076 4.17007 0.097464 0.0967033 9.48874e-05 0.0970894 1.70806e-06 272.96 
-0.27 -0.03 -2.64684 3.95995 0.0974904 0.0966253 0.000189012 0.09721 1.70823e-06 273.271 
-0.31 -0.01 -2.34244 4.64887 0.0974573 0.0967703 -1.39686e-05 0.0971607 1.71026e-06 272.809 
-0.25 -0.03 -2.75988 3.93494 0.0974662 0.0968927 0.00029105 0.0972105 1.71214e-06 272.649 
-0.29 -0.01 -2.58926 4.31172 0.097345 0.0965875 0.000131321 0.0970584 1.70756e-06 272.953 
-0.27 -0.01 -2.87482 4.15096 0.0972437 0.0965446 0.000165185 0.0971197 1.70896e-06 272.902 
-0.33 -0.25 -1.07967 1.36555 0.0978319 0.0970394 2.10633e-05 0.0974377 1.7144e-06 272.926 
-0.31 -0.25 -1.49727 1.43315 0.0978224 0.0971516 9.40072e-07 0.097523 1.71573e-06 272.954 
-0.29 -0.25 -1.81283 1.95265 0.0977299 0.09701 0.000189361 0.0973973 1.71237e-06 273.137 
-0.27 -0.25 -2.16606 2.09086 0.0977617 0.0971188 0.000178669 0.097471 1.71369e-06 273.132 
-0.29 -0.11 -2.48417 3.33253 0.0976753 0.0968941 0.000104061 0.0972687 1.71117e-06 272.966 
-0.27 -0.11 -2.765 3.18803 0.0975009 0.0968656 0.000251488 0.0971927 1.70793e-06 273.271 
-0.31 -0.09 -2.0272 3.22726 0.0975002 0.0969131 7.131e-05 0.0972728 1.71119e-06 272.975 
-0.29 -0.09 -1.91162 3.63383 0.0974585 0.0967224 0.00018709 0.0971029 1.70773e-06 273.051 
-0.31 -0.23 -1.68819 1.8735 0.097534 0.0970943 0.000114284 0.0973765 1.71254e-06 273.052 
-0.29 -0.23 -2.01053 2.17311 0.0976654 0.0969222 5.6248e-05 0.0973245 1.71162e-06 273.052 
-0.27 -0.23 -1.83227 2.13786 0.0977583 0.097265 7.50902e-05 0.097538 1.71409e-06 273.256 
-0.31 -0.21 -1.80654 2.00902 0.0977691 0.0970851 3.49313e-05 0.0973896 1.71222e-06 273.139 
-0.29 -0.21 -1.6933 2.09403 0.09771 0.0969082 -2.22406e-05 0.0973739 1.71201e-06 273.128 
-0.27 -0.21 -1.79125 2.42372 0.0976966 0.0971463 8.59858e-05 0.0974431 1.7123e-06 273.276 
-0.31 -0.19 -1.54506 2.39391 0.0977166 0.0970843 -1.22548e-05 0.0973283 1.71114e-06 273.139 
-0.25 -0.21 -2.13337 2.25715 0.0978339 0.09721 0.000180421 0.097432 1.71194e-06 273.303 
-0.29 -0.19 -1.79284 2.15834 0.0976647 0.0969509 -6.30487e-06 0.0973396 1.71191e-06 273.048 
-0.27 -0.19 -2.0504 2.42851 0.0976309 0.0970604 8.81093e-05 0.0973657 1.71188e-06 273.126 
-0.31 -0.17 -2.04462 2.46108 0.0976859 0.0970419 6.85724e-05 0.0973581 1.7114e-06 273.181 
-0.25 -0.19 -2.21342 2.60285 0.0974838 0.0970375 0.000167165 0.0972521 1.71402e-06 272.467 
-0.29 -0.17 -2.1412 2.44047 0.0975274 0.0968005 0.000148522 0.0972528 1.7091e-06 273.254 
-0.27 -0.17 -2.48863 2.8152 0.0975767 0.0970827 0.000114701 0.0973627 1.71167e-06 273.151 
-0.31 -0.15 -1.86972 2.58941 0.0975935 0.0969397 0.000110786 0.0973011 1.71138e-06 273.024 
-0.25 -0.17 -2.71361 2.60233 0.0975304 0.0969673 0.000194802 0.0972072 1.71074e-06 272.863 
-0.29 -0.15 -2.19563 2.758 0.0976847 0.0969848 9.73062e-05 0.0973462 1.71119e-06 273.181 
-0.27 -0.15 -2.36117 2.98269 0.0976082 0.096901 0.000226635 0.097259 1.71083e-06 272.995 
-0.31 -0.13 -2.20809 2.84672 0.0975171 0.0969519 0.000250018 0.0972879 1.70998e-06 273.211 
-0.25 -0.15 -2.46158 2.70921 0.097508 0.0969668 0.000210916 0.0971748 1.70911e-06 273.033 
-0.29 -0.13 -2.43185 3.13243 0.0974623 0.0969425 0.000172151 0.097219 1.70935e-06 273.118 
-0.27 -0.13 -2.54454 2.85554 0.0974874 0.0967676 0.000126975 0.097049 1.70716e-06 272.991 
-0.31 -0.11 -2.07561 3.07301 0.0975814 0.09694 0.000148679 0.0972436 1.7093e-06 273.195 
-0.25 -0.13 -2.57892 2.91681 0.0976419 0.0969698 0.000253185 0.0973025 1.7114e-06 273.026 
-0.25 -0.23 -2.04498 1.99947 0.0976457 0.0972879 0.000122034 0.0974186 1.71335e-06 273.04 
-0.25 -0.11 -2.94146 2.91062 0.0974416 0.0969563 0.000168151 0.0971474 1.70841e-06 273.067 
-0.25 -0.09 -2.81157 2.99373 0.0976117 0.0969902 0.000154295 0.0973787 1.70941e-06 273.557 
-0.25 -0.01 -3.22199 4.2948 0.0973474 0.0969213 0.000228956 0.0971449 1.71066e-06 272.701 
-0.23 -0.49 -0.556758 0.190093 0.0973158 0.0974049 0.000244961 0.0974326 1.71418e-06 272.947 
-0.21 -0.49 -0.767957 -0.0659426 0.097297 0.0970249 0.000235021 0.0972538 1.71041e-06 273.047 
-0.19 -0.49 -0.777027 -0.0430158 0.0973382 0.0973624 0.000221982 0.097344 1.71289e-06 272.904 
-0.23 -0.47 -0.934538 -0.086173 0.0974734 0.0973779 0.000320614 0.0974324 1.71641e-06 272.592 
-0.17 -0.49 -0.542182 -0.31489 0.0973637 0.0975041 0.000252121 0.0974943 1.71479e-06 273.023 
-0.21 -0.47 -0.931147 0.0695421 0.0974184 0.0970869 0.000267377 0.0973044 1.71118e-06 273.066 
-0.15 -0.49 -0.368297 0.0898634 0.0974314 0.0975332 0.000255772 0.0975283 1.71595e-06 272.933 