ITEM: TIMESTEP
909500
ITEM: NUMBER OF CELLS
2500
ITEM: BOX BOUNDS ss ss pp
-0.5 0.5
-0.5 0.5
-0.5 0.5
ITEM: CELLS xc yc f_U[*] f_V[*] f_Tau[1] f_Tau[2] f_Tau[3] f_Press[*] f_Mrho[*] f_Ttra[*] 
-0.49 -0.49 -0.018786 -0.00344415 0.0974112 0.0973786 -2.43021e-05 0.0973569 1.71236e-06 273.024 
-0.47 -0.49 -0.0349702 -0.0384987 0.0974608 0.0975386 -1.70745e-05 0.0975517 1.71609e-06 272.977 
-0.45 -0.49 0.0446255 -0.0452264 0.0975152 0.0973472 5.9974e-06 0.0975498 1.71559e-06 273.051 
-0.49 -0.47 -0.0840981 0.0573907 0.0973498 0.0973893 -7.53375e-05 0.0973397 1.71334e-06 272.82 
-0.43 -0.49 0.0812216 0.0464018 0.0975287 0.0974588 1.1048e-05 0.0974166 1.71346e-06 273.017 
-0.47 -0.47 0.100182 -0.0303693 0.0973805 0.0974407 5.6233e-05 0.0974244 1.71381e-06 272.983 
-0.41 -0.49 0.0370413 0.0732769 0.0975083 0.0973611 0.000109039 0.0974138 1.71432e-06 272.872 
-0.45 -0.47 -0.0799782 -0.0383962 0.0973218 0.097371 -1.87983e-06 0.0973925 1.71398e-06 272.867 
-0.49 -0.45 0.107197 -0.114239 0.0973578 0.0973666 -2.82986e-05 0.0973263 1.71173e-06 273.039 
-0.39 -0.49 -0.0820046 -0.0820907 0.0974034 0.0972629 4.88532e-05 0.0974035 1.71469e-06 272.784 
-0.43 -0.47 -0.0982154 0.0327041 0.097258 0.0973965 8.30593e-05 0.0973213 1.71171e-06 273.028 
-0.47 -0.45 0.141809 -0.0695724 0.0973012 0.0974251 -9.69876e-05 0.0973209 1.7123e-06 272.934 
-0.37 -0.49 -0.0929888 0.0588585 0.0974358 0.0973328 0.000131264 0.097487 1.71427e-06 273.085 
-0.41 -0.47 -0.303356 0.212272 0.0973904 0.0973962 7.53271e-05 0.0974363 1.71357e-06 273.054 
-0.45 -0.45 0.110426 0.28702 0.097331 0.0972567 0.000126896 0.0972948 1.71313e-06 272.728 
-0.49 -0.43 -0.0439556 -0.14426 0.0974235 0.0972718 4.09752e-05 0.0974041 1.71294e-06 273.064 
-0.35 -0.49 -0.308696 0.196244 0.0974376 0.0973731 6.10406e-05 0.0975343 1.71496e-06 273.107 
-0.39 -0.47 -0.249869 -0.0207332 0.0974743 0.0973075 0.00010772 0.0974566 1.71259e-06 273.268 
-0.43 -0.45 -0.19776 -0.0211255 0.0974125 0.0974955 2.99333e-07 0.0974836 1.71511e-06 272.942 
-0.47 -0.43 -0.104381 -0.0840808 0.0974341 0.0974649 3.46651e-05 0.0974774 1.71397e-06 273.106 
-0.37 -0.47 -0.32972 0.174046 0.0974471 0.0973 3.96561e-05 0.0973265 1.71045e-06 273.244 
-0.41 -0.45 -0.0611833 0.408463 0.0973596 0.0973419 1.96155e-05 0.097363 1.71354e-06 272.854 
-0.45 -0.43 -0.258084 0.517407 0.0974198 0.0973312 6.19573e-05 0.0974441 1.71348e-06 273.09 
-0.49 -0.41 0.0387771 -0.113913 0.0973521 0.0972867 8.76969e-05 0.0973435 1.71279e-06 272.919 
-0.35 -0.47 -0.386141 0.212947 0.0975017 0.0973534 0.000118578 0.0973841 1.71207e-06 273.148 
-0.39 -0.45 -0.25632 0.0190452 0.0972795 0.0972565 8.42816e-05 0.0972844 1.71004e-06 273.191 
-0.43 -0.43 -0.413025 0.175532 0.0974958 0.0973488 -6.59444e-05 0.0974788 1.71274e-06 273.306 
-0.47 -0.41 -0.0955358 0.181274 0.0973539 0.0974044 -2.92974e-05 0.0973496 1.71282e-06 272.931 
-0.37 -0.45 -0.311287 0.290913 0.0973187 0.0973873 2.59077e-05 0.0973496 1.71153e-06 273.136 
-0.41 -0.43 -0.422815 0.246912 0.097411 0.0972887 3.37303e-05 0.0974087 1.7136e-06 272.971 
-0.45 -0.41 -0.261079 0.410562 0.0974636 0.097446 -9.43059e-06 0.0975075 1.71567e-06 272.919 
-0.49 -0.39 -0.172598 0.108555 0.0974421 0.0973918 -2.78833e-05 0.0974736 1.71281e-06 273.28 
-0.35 -0.45 -0.420119 0.158775 0.0972408 0.0972437 9.78634e-05 0.0972316 1.71066e-06 272.945 
-0.39 -0.43 -0.167775 0.0181186 0.0974088 0.0973025 8.52064e-05 0.0973953 1.71313e-06 273.01 
-0.43 -0.41 -0.148755 0.342449 0.0973584 0.0973025 5.72338e-05 0.0973659 1.71141e-06 273.202 
-0.47 -0.39 -0.331086 0.0739152 0.097429 0.097421 -1.24419e-05 0.0974098 1.7137e-06 272.96 
-0.33 -0.45 -0.389527 0.260184 0.0973608 0.0972883 0.000108325 0.0973628 1.71376e-06 272.818 
-0.37 -0.43 -0.522329 0.48295 0.0974693 0.0973908 7.12533e-05 0.097465 1.71497e-06 272.913 
-0.41 -0.41 -0.38477 0.237361 0.0973335 0.097217 5.42174e-05 0.0973627 1.7134e-06 272.875 
-0.45 -0.39 -0.102992 0.504605 0.097493 0.0973467 -7.277e-05 0.0974305 1.71446e-06 272.897 
-0.35 -0.43 -0.381905 0.307491 0.0974181 0.0973073 9.83746e-05 0.0973622 1.71209e-06 273.083 
-0.39 -0.41 -0.633643 0.29559 0.0974555 0.0973868 1.40045e-05 0.0974432 1.7136e-06 273.068 
-0.43 -0.39 -0.160977 0.47085 0.0976039 0.097305 2.81619e-05 0.097444 1.71436e-06 272.95 
-0.37 -0.41 -0.57721 0.42211 0.0973901 0.0972477 7.76522e-05 0.0973861 1.71065e-06 273.379 
-0.41 -0.39 -0.350665 0.481239 0.097617 0.0973102 5.76335e-05 0.0974682 1.71348e-06 273.158 
-0.35 -0.41 -0.723383 0.337982 0.0974331 0.0972811 5.39902e-05 0.0974186 1.71243e-06 273.186 
-0.39 -0.39 -0.56482 0.378257 0.0975623 0.09741 1.33659e-05 0.0975024 1.71309e-06 273.317 
-0.33 -0.41 -0.65108 0.387438 0.0974738 0.0973005 3.32466e-05 0.0974069 1.71221e-06 273.189 
-0.37 -0.39 -0.450387 0.312999 0.0974626 0.0971471 5.38682e-05 0.0974215 1.71153e-06 273.339 
-0.35 -0.39 -0.264932 0.438324 0.0974842 0.0972946 9.01461e-05 0.0974846 1.71171e-06 273.486 
-0.33 -0.39 -0.341927 0.353206 0.0975727 0.0972586 9.15534e-05 0.0974488 1.71398e-06 273.024 
-0.37 -0.37 -0.581736 0.200162 0.0976501 0.0971839 8.94426e-05 0.0973616 1.71278e-06 272.971 
-0.49 -0.37 -0.018752 0.187969 0.0975632 0.0974087 -8.84375e-05 0.0975137 1.71522e-06 273.009 
-0.47 -0.37 0.0184426 0.354657 0.0975754 0.0974706 -3.17203e-05 0.0975647 1.71532e-06 273.136 
-0.45 -0.37 -0.249946 0.312011 0.097478 0.0971851 -6.49285e-06 0.0973191 1.71311e-06 272.799 
-0.49 -0.35 -0.128381 0.418082 0.0974904 0.0973783 -4.9799e-05 0.0974841 1.71324e-06 273.24 
-0.43 -0.37 -0.332248 0.667688 0.0975158 0.0972795 -3.4915e-05 0.0974442 1.71492e-06 272.862 
-0.47 -0.35 -0.371861 0.21723 0.0975426 0.0973597 -1.49576e-05 0.0974477 1.71492e-06 272.872 
-0.45 -0.35 -0.176446 0.58775 0.0976505 0.0973214 2.49312e-05 0.0974719 1.71313e-06 273.224 
-0.49 -0.33 -0.0578408 0.601024 0.0975322 0.0973041 -0.000138312 0.0975025 1.71495e-06 273.02 
-0.39 -0.37 -0.418925 0.484626 0.0976044 0.0973695 3.5483e-05 0.0975568 1.71315e-06 273.459 
-0.43 -0.35 -0.351604 0.694267 0.0975697 0.0971895 -5.75368e-05 0.0974364 1.71335e-06 273.09 
-0.47 -0.33 0.00947214 0.220414 0.0974797 0.0972847 -2.74524e-05 0.0973965 1.71183e-06 273.22 
-0.41 -0.35 -0.323628 0.511476 0.0975748 0.0972913 -7.03422e-06 0.0975344 1.71527e-06 273.059 
-0.45 -0.33 -0.0706992 0.48084 0.0975228 0.0973799 -7.17428e-05 0.0974683 1.71383e-06 273.102 
-0.49 -0.31 0.106828 0.617525 0.0973427 0.0972571 -9.48683e-05 0.0972888 1.71162e-06 272.951 
-0.39 -0.35 -0.389892 0.612292 0.0976024 0.0972887 4.33008e-06 0.0975416 1.71408e-06 273.268 
-0.43 -0.33 -0.005095 0.852476 0.0974756 0.0971395 -4.44928e-05 0.0973867 1.71369e-06 272.896 
-0.47 -0.31 -0.152927 0.229269 0.0974552 0.0972917 -6.16362e-05 0.0974398 1.71209e-06 273.301 
-0.37 -0.35 -0.457833 0.383093 0.0976053 0.0972229 7.90607e-05 0.0974421 1.71304e-06 273.155 
-0.41 -0.33 -0.254755 0.626479 0.0975415 0.0972914 -6.47281e-05 0.0974712 1.71403e-06 273.08 
-0.45 -0.31 -0.149404 0.434846 0.0974846 0.0973189 -1.95856e-05 0.0974793 1.7125e-06 273.346 
-0.49 -0.29 0.0168748 0.582584 0.0975148 0.097205 -6.38726e-05 0.0973881 1.71357e-06 272.919 
-0.35 -0.35 -0.690742 0.478356 0.0975471 0.0972977 -4.79965e-06 0.0974512 1.71502e-06 272.865 
-0.39 -0.33 -0.387612 0.749242 0.0976078 0.0971534 -1.43487e-05 0.0974557 1.71218e-06 273.331 
-0.43 -0.31 -0.051011 0.876924 0.0975185 0.0973242 -5.5868e-05 0.0974204 1.71239e-06 273.198 
-0.47 -0.29 -0.0565084 0.606857 0.0974938 0.0971991 -0.000142341 0.0973703 1.71163e-06 273.178 
-0.37 -0.33 -0.661581 0.678755 0.0976816 0.0972975 6.94338e-05 0.0975458 1.71521e-06 273.1 
-0.41 -0.31 -0.0774873 0.903876 0.0974976 0.0972411 -0.000157507 0.0973545 1.71179e-06 273.109 
-0.45 -0.29 -0.54084 0.594186 0.0975452 0.0973812 -5.09852e-05 0.0975645 1.71454e-06 273.259 
-0.49 -0.27 -0.0982279 0.692421 0.0975838 0.0973532 -6.5425e-05 0.0974316 1.7118e-06 273.324 
-0.35 -0.33 -1.01824 0.690712 0.0977159 0.0973112 0.000132562 0.0975857 1.71443e-06 273.337 
-0.39 -0.31 -0.352193 0.904855 0.0975254 0.0971018 7.27781e-06 0.0973502 1.7113e-06 273.175 
-0.43 -0.29 -0.582189 0.530506 0.0976145 0.097278 -7.34234e-05 0.0975282 1.71266e-06 273.457 
-0.47 -0.27 -0.158196 0.545692 0.0976021 0.0972332 -0.000180928 0.0973618 1.71279e-06 272.969 
-0.33 -0.33 -1.16819 0.731749 0.0976383 0.0972123 8.40836e-05 0.0974737 1.71423e-06 273.054 
-0.37 -0.31 -0.770764 1.10772 0.0974562 0.0971365 -1.1829e-05 0.0973471 1.71276e-06 272.933 
-0.41 -0.29 -0.551493 1.204 0.0975799 0.0972751 -3.79251e-05 0.0974809 1.71501e-06 272.949 
-0.45 -0.27 -0.0148738 1.05772 0.0975809 0.0972948 -9.99155e-05 0.0974905 1.71285e-06 273.322 
-0.35 -0.31 -1.03105 0.930417 0.0974806 0.0973968 0.000128371 0.0974727 1.71192e-06 273.419 
-0.39 -0.29 -0.721869 1.04797 0.0973606 0.0969616 -0.000101889 0.097215 1.7109e-06 272.86 
-0.43 -0.27 -0.490296 0.820269 0.0975422 0.0972038 -7.89255e-05 0.0974165 1.71389e-06 272.948 
-0.37 -0.29 -0.598833 1.3835 0.0974319 0.0970907 1.11397e-06 0.0972457 1.71061e-06 272.991 
-0.41 -0.27 -0.72778 1.18931 0.0976265 0.0973005 -4.97455e-05 0.0974773 1.71627e-06 272.74 
-0.35 -0.29 -0.91333 0.994506 0.0976194 0.0973251 -1.51739e-05 0.0974884 1.71298e-06 273.294 
-0.39 -0.27 -0.668793 1.13587 0.0977067 0.0969797 -3.74064e-05 0.0973645 1.71311e-06 272.926 
-0.33 -0.29 -0.956421 1.21181 0.097618 0.0971415 0.000148314 0.0973513 1.71197e-06 273.072 
-0.37 -0.27 -0.810032 1.44012 0.0977377 0.0970892 -0.00011617 0.0974302 1.71469e-06 272.859 
-0.35 -0.27 -1.04352 1.29543 0.0977326 0.0971159 -2.36276e-05 0.0974567 1.71526e-06 272.842 
-0.41 -0.37 -0.305123 0.609196 0.0975435 0.0973104 3.0713e-05 0.0975059 1.71511e-06 273.004 
-0.35 -0.37 -0.518966 0.404732 0.097675 0.0972758 1.42116e-05 0.0974774 1.71493e-06 272.954 
-0.45 -0.25 -0.336887 1.05602 0.0976462 0.0971622 -0.00018353 0.097439 1.71375e-06 273.034 
-0.37 -0.25 -0.917302 1.37795 0.097689 0.0970022 -2.79356e-05 0.0973589 1.71354e-06 272.842 
-0.35 -0.25 -0.747896 1.46941 0.0977399 0.0970348 1.69989e-05 0.0974375 1.71658e-06 272.579 
-0.33 -0.49 -0.474912 0.0199943 0.0974104 0.0972886 0.000105775 0.0973956 1.71395e-06 272.88 
-0.31 -0.49 -0.607059 0.00887485 0.0974712 0.0972406 0.00014734 0.097364 1.7126e-06 273.006 
-0.29 -0.49 -0.70053 0.0199531 0.0975148 0.0975118 0.000144819 0.0975484 1.71699e-06 272.824 
-0.33 -0.47 -0.369003 0.197811 0.0975105 0.097255 0.000127391 0.097407 1.71528e-06 272.7 
-0.27 -0.49 -0.499959 0.0436203 0.0975414 0.0974462 0.000221776 0.0974758 1.71471e-06 272.983 
-0.31 -0.47 -0.473794 0.00601506 0.0974213 0.0972557 0.000112715 0.0973451 1.71258e-06 272.957 
-0.29 -0.47 -0.589233 0.155841 0.0974472 0.0974278 0.000191003 0.0974099 1.71408e-06 272.9 
-0.27 -0.47 -0.688678 -0.0350486 0.0973839 0.0972744 0.000170974 0.097388 1.7141e-06 272.835 
-0.31 -0.45 -0.446972 0.323074 0.0975024 0.0973729 9.01857e-05 0.0974947 1.71478e-06 273.025 
-0.29 -0.45 -0.526895 0.164077 0.0974528 0.0973638 0.000142029 0.0974324 1.7134e-06 273.07 
-0.33 -0.43 -0.682556 0.255594 0.0973984 0.0972187 7.87482e-05 0.097394 1.71263e-06 273.086 
-0.27 -0.45 -0.754694 -0.0294006 0.0974775 0.0973563 0.000180508 0.0973877 1.71137e-06 273.27 
-0.31 -0.43 -0.561093 0.295453 0.0973844 0.0972918 5.08042e-05 0.0973533 1.71221e-06 273.039 
-0.29 -0.43 -0.675033 0.381731 0.0973942 0.0972524 0.000174135 0.0973711 1.71075e-06 273.321 
-0.27 -0.43 -0.622727 -0.0428757 0.097482 0.0972246 0.000225193 0.0973476 1.70983e-06 273.402 
-0.31 -0.41 -0.56745 0.213803 0.097402 0.0971577 7.76186e-05 0.0972601 1.71018e-06 273.101 
-0.29 -0.41 -0.606399 0.375663 0.0974976 0.0972587 9.41767e-05 0.0973733 1.71033e-06 273.394 
-0.27 -0.41 -0.836887 0.034201 0.097438 0.0972648 0.000149336 0.0972785 1.70934e-06 273.287 
-0.31 -0.39 -0.746994 0.353747 0.0976422 0.0972433 4.60554e-05 0.0973993 1.71542e-06 272.657 
-0.29 -0.39 -0.705203 0.444107 0.0975473 0.0972204 9.31652e-05 0.097381 1.7128e-06 273.022 
-0.33 -0.37 -0.625931 0.627157 0.09759 0.0972475 6.0434e-06 0.0974525 1.71277e-06 273.227 
-0.27 -0.39 -0.949175 0.393662 0.097554 0.0972776 0.000147563 0.0974491 1.7137e-06 273.069 
-0.31 -0.37 -0.886752 0.586115 0.0975329 0.0972054 7.95008e-05 0.0973688 1.71169e-06 273.165 
-0.29 -0.37 -1.0449 0.376363 0.0974945 0.0971425 0.000162834 0.097431 1.71185e-06 273.314 
-0.33 -0.35 -0.755741 0.793313 0.0976879 0.0972352 8.55511e-05 0.0974647 1.71338e-06 273.163 
-0.27 -0.37 -1.28218 0.780955 0.0976314 0.097235 9.4732e-05 0.0974665 1.71242e-06 273.322 
-0.31 -0.35 -0.929785 0.851348 0.0976668 0.0971922 0.000141251 0.0974209 1.71503e-06 272.779 
-0.29 -0.35 -1.38385 0.644782 0.0976282 0.0972171 7.45758e-05 0.0974179 1.7133e-06 273.046 
-0.27 -0.35 -1.47751 1.07881 0.0975844 0.0971978 6.3117e-05 0.0973552 1.71418e-06 272.73 
-0.31 -0.33 -1.08056 1.01612 0.0976245 0.0970115 8.9374e-05 0.0973658 1.7138e-06 272.82 
-0.29 -0.33 -1.11819 0.925228 0.0975862 0.0972217 0.000133471 0.0974839 1.71375e-06 273.159 
-0.33 -0.31 -1.26603 0.761709 0.0975455 0.0971908 7.05519e-05 0.0973522 1.71361e-06 272.813 
-0.27 -0.33 -1.50881 1.27432 0.0976029 0.0972191 0.000127454 0.097497 1.71509e-06 272.983 
-0.31 -0.31 -1.22623 0.885295 0.0975084 0.0970469 0.000119144 0.0974031 1.71472e-06 272.778 
-0.29 -0.31 -1.42354 1.29269 0.0976372 0.0972318 8.94895e-05 0.0975273 1.71524e-06 273.044 
-0.27 -0.31 -1.52477 1.4012 0.097671 0.0971943 0.000122205 0.0974779 1.71356e-06 273.173 
-0.31 -0.29 -1.45141 0.99107 0.0976577 0.0970773 9.60411e-05 0.0973361 1.71227e-06 272.98 
-0.29 -0.29 -1.4754 1.38727 0.097654 0.0971991 5.57675e-05 0.0974675 1.71434e-06 273.02 
-0.27 -0.29 -1.62869 1.34522 0.0977124 0.0972283 9.05148e-05 0.0974754 1.7147e-06 272.983 
-0.31 -0.27 -1.15194 1.27582 0.0977457 0.0971832 6.17885e-05 0.0974343 1.7127e-06 273.188 
-0.25 -0.29 -1.80406 1.37053 0.0976707 0.0973047 0.000223839 0.0975118 1.71532e-06 272.987 
-0.29 -0.27 -1.43708 1.50326 0.0977228 0.097241 2.80463e-05 0.0974484 1.71076e-06 273.537 
-0.27 -0.27 -1.83099 1.6467 0.0976084 0.0970479 0.000134635 0.0973196 1.71056e-06 273.207 
-0.25 -0.27 -2.18829 1.73164 0.0976554 0.0972375 0.00016376 0.0974001 1.71285e-06 273.068 
-0.33 -0.27 -1.1831 1.22441 0.0977933 0.0970823 7.11196e-05 0.097369 1.7124e-06 273.052 
-0.25 -0.49 -0.574761 -0.105347 0.0974256 0.0974823 0.000255543 0.0974959 1.71479e-06 273.027 
-0.25 -0.47 -0.630543 0.168719 0.0975912 0.0975574 0.00029907 0.097499 1.71422e-06 273.126 
-0.25 -0.45 -0.730151 0.198985 0.0973578 0.0973758 0.000193422 0.0973265 1.70914e-06 273.454 
-0.25 -0.37 -1.46826 0.726783 0.0975781 0.097333 0.000116353 0.0974927 1.7126e-06 273.367 
-0.25 -0.35 -1.63287 0.65406 0.0976321 0.0973173 0.000149784 0.0974753 1.7151e-06 272.921 
-0.25 -0.33 -1.69824 0.893857 0.0975556 0.0972033 4.80371e-05 0.097458 1.71345e-06 273.134 
-0.25 -0.25 -2.23335 1.8151 0.0977917 0.0973497 5.58437e-05 0.0976267 1.71591e-06 273.215 
-0.49 -0.25 -0.0103804 0.716805 0.0976868 0.0973632 -9.44113e-05 0.0975293 1.71435e-06 273.19 
-0.47 -0.25 -0.0772451 0.562501 0.0976265 0.0972064 -0.000177686 0.0974388 1.71289e-06 273.169 
-0.49 -0.23 -0.0250352 0.58397 0.0973752 0.0972708 -0.000189733 0.0973388 1.71108e-06 273.178 
-0.47 -0.23 0.0750721 0.970412 0.0975346 0.0972563 -0.000162782 0.0973426 1.71222e-06 273.006 
-0.45 -0.23 -0.287665 1.21513 0.097517 0.0970876 -0.000195887 0.0973181 1.71218e-06 272.944 
-0.49 -0.21 -0.0822479 0.808289 0.0976704 0.0973491 -0.000187709 0.0975932 1.71515e-06 273.242 
-0.43 -0.23 -0.511672 1.18565 0.0976248 0.0972508 -0.00016213 0.0974011 1.71333e-06 272.994 
-0.47 -0.21 -0.35438 0.773171 0.0975548 0.0972867 -0.000138772 0.0974866 1.71485e-06 272.991 
-0.41 -0.23 -0.650461 1.54966 0.0976445 0.0971579 -7.17688e-05 0.0974282 1.7135e-06 273.043 
-0.45 -0.21 -0.112182 1.33898 0.0975936 0.0971078 -0.000248194 0.0974076 1.71423e-06 272.868 
-0.49 -0.19 -0.0386235 0.969214 0.0976351 0.0971978 -0.000183582 0.0974341 1.71537e-06 272.761 
-0.39 -0.23 -0.652842 1.38953 0.0976605 0.0971302 -8.06842e-05 0.0974216 1.71498e-06 272.788 
-0.43 -0.21 -0.429221 1.57389 0.0976355 0.0971381 -0.000194336 0.0974251 1.71447e-06 272.88 
-0.47 -0.19 -0.304758 1.06234 0.0977396 0.0973796 -0.00020245 0.0975543 1.71727e-06 272.796 
-0.41 -0.21 -0.606397 1.4813 0.0975773 0.0971187 -0.000137554 0.0973485 1.71163e-06 273.118 
-0.45 -0.19 -0.734466 1.46487 0.0976716 0.0971541 -0.000233995 0.0974076 1.71272e-06 273.109 
-0.49 -0.17 -0.207599 1.081 0.0975632 0.0971748 -0.000206107 0.0973694 1.71205e-06 273.108 
-0.39 -0.21 -0.645421 1.48696 0.0976081 0.0969881 -9.65119e-06 0.097321 1.70971e-06 273.347 
-0.43 -0.19 -0.535536 1.4594 0.097696 0.097037 -0.000192666 0.0974591 1.71209e-06 273.355 
-0.47 -0.17 -0.368825 1.25424 0.0976083 0.0973364 -0.000211652 0.0974926 1.71409e-06 273.129 
-0.41 -0.19 -0.407109 1.52807 0.0977459 0.0970333 -0.000127002 0.0973954 1.71207e-06 273.179 
-0.45 -0.17 -0.277492 1.51934 0.0977104 0.09716 -0.000281523 0.097438 1.71322e-06 273.115 
-0.49 -0.15 0.0611808 1.22484 0.0974327 0.0972225 -0.000285909 0.0973163 1.71428e-06 272.606 
-0.39 -0.19 -0.980118 2.00809 0.0978246 0.0969807 -0.000102262 0.0973487 1.71042e-06 273.311 
-0.43 -0.17 -0.311464 1.32808 0.0977023 0.0970464 -0.000187123 0.0974139 1.71117e-06 273.375 
-0.47 -0.15 -0.165091 1.41704 0.0976154 0.0973177 -0.00032115 0.0974846 1.71408e-06 273.108 
-0.41 -0.17 -0.726886 2.08456 0.0976736 0.0969415 -0.000186146 0.097289 1.71095e-06 273.06 
-0.45 -0.15 -0.341027 1.46117 0.0975627 0.0971642 -0.000242931 0.0973329 1.71212e-06 272.995 
-0.39 -0.17 -1.01579 2.23909 0.0975833 0.0969386 -7.78838e-05 0.0972977 1.71054e-06 273.148 
-0.43 -0.15 -0.471756 1.76366 0.097525 0.0968758 -0.000138034 0.0972483 1.70962e-06 273.157 
-0.41 -0.15 -0.839599 2.25655 0.0974781 0.0969308 -0.000127404 0.0972119 1.71083e-06 272.861 
-0.39 -0.15 -0.994491 2.46845 0.0976224 0.0968572 -7.33748e-05 0.0973413 1.71228e-06 272.993 
-0.43 -0.25 -0.40953 1.16834 0.0977046 0.0971929 -7.38023e-05 0.0975217 1.71373e-06 273.268 
-0.41 -0.25 -0.633257 1.35828 0.0977355 0.0972273 -0.000110959 0.0975532 1.71479e-06 273.188 
-0.39 -0.25 -0.7509 1.32695 0.0977635 0.097073 -9.32333e-05 0.097382 1.71327e-06 272.949 
-0.37 -0.23 -0.653319 1.56796 0.0975552 0.0969771 -1.7956e-05 0.097339 1.71444e-06 272.644 
-0.35 -0.23 -1.18954 1.69224 0.0976043 0.0970851 -6.79507e-05 0.0973426 1.7144e-06 272.66 
-0.33 -0.23 -1.45808 1.62752 0.0975452 0.0969699 -4.33423e-05 0.0972571 1.7108e-06 272.994 
-0.37 -0.21 -1.09678 2.02206 0.097738 0.0970285 -5.8288e-05 0.0974459 1.7121e-06 273.316 
-0.35 -0.21 -1.22821 2.0674 0.0976972 0.0971269 -0.000109388 0.0974383 1.7136e-06 273.055 
-0.33 -0.21 -1.51587 2.0082 0.0977474 0.0969454 -8.89268e-06 0.0973512 1.71183e-06 273.093 
-0.37 -0.19 -1.2261 2.12075 0.0978113 0.0970784 -6.52359e-05 0.0975701 1.71504e-06 273.196 
-0.35 -0.19 -1.33206 2.25754 0.097675 0.0970116 7.53067e-05 0.0973426 1.71378e-06 272.759 
-0.33 -0.19 -1.46735 2.1782 0.0975808 0.0968747 6.03589e-05 0.0972612 1.70984e-06 273.159 
-0.37 -0.17 -1.17241 2.49083 0.0975242 0.0969459 -2.61084e-05 0.0973102 1.71138e-06 273.051 
-0.35 -0.17 -1.61269 2.30409 0.0976122 0.0969765 8.56876e-05 0.0973049 1.70987e-06 273.276 
-0.33 -0.17 -1.80958 2.3636 0.0976992 0.0969934 1.94598e-05 0.0973471 1.71147e-06 273.139 
-0.37 -0.15 -1.05619 2.70422 0.0976532 0.0968526 -1.04531e-05 0.0972497 1.70952e-06 273.177 
-0.35 -0.15 -1.32291 2.65899 0.0976312 0.0969988 -3.36623e-05 0.0973523 1.71092e-06 273.241 
-0.33 -0.15 -1.6352 2.63593 0.0976371 0.0969627 3.93326e-05 0.0971895 1.70919e-06 273.06 
-0.35 -0.13 -1.524 2.98456 0.0977136 0.0968812 1.05892e-06 0.0972699 1.71116e-06 272.972 
-0.33 -0.13 -1.82734 2.84514 0.0976768 0.0969031 9.99856e-05 0.09732 1.7123e-06 272.932 
-0.33 -0.09 -1.95934 3.50863 0.0974798 0.0966166 5.65557e-05 0.0970647 1.70977e-06 272.618 
-0.37 -0.13 -1.58864 2.78355 0.0976836 0.0969047 -9.8825e-05 0.0972231 1.7097e-06 273.073 
-0.37 -0.11 -1.55064 2.86591 0.0975197 0.0967312 -0.000128463 0.0971131 1.7075e-06 273.116 
-0.35 -0.11 -1.7632 3.10244 0.0975068 0.0968445 -3.28059e-05 0.0972107 1.70949e-06 273.073 
-0.33 -0.11 -1.77982 3.17834 0.0974747 0.0967396 9.48604e-05 0.0971615 1.71128e-06 272.648 
-0.35 -0.09 -1.6377 3.0894 0.0974677 0.0966897 1.73426e-05 0.0971035 1.70908e-06 272.837 
-0.49 -0.13 -0.0115073 1.36361 0.0973597 0.097229 -0.000443959 0.0972842 1.71059e-06 273.103 
-0.47 -0.13 -0.0297736 1.62274 0.0974167 0.0971898 -0.000338654 0.0972734 1.71045e-06 273.096 
-0.45 -0.13 -0.311269 1.55823 0.097472 0.0971307 -0.000170961 0.0972354 1.71139e-06 272.839 
-0.49 -0.11 0.0362527 1.25387 0.0976115 0.0972123 -0.000419019 0.097461 1.71474e-06 272.938 
-0.43 -0.13 -0.760739 2.10921 0.0975383 0.0968003 -0.000241552 0.0971715 1.70875e-06 273.081 
-0.47 -0.11 -0.134189 1.81104 0.0975858 0.0971171 -0.000364414 0.0973782 1.71274e-06 273.024 
-0.41 -0.13 -1.02232 2.5929 0.0975675 0.096965 -0.000277337 0.0972594 1.71142e-06 272.901 
-0.45 -0.11 -0.527846 2.08776 0.0975418 0.0969922 -0.000253487 0.0972721 1.71074e-06 273.046 
-0.49 -0.09 -0.12742 1.41055 0.0974718 0.0972236 -0.000399301 0.0973212 1.7119e-06 272.998 
-0.39 -0.13 -1.36514 2.571 0.0976376 0.0968395 -0.000123117 0.0972934 1.71152e-06 272.981 
-0.43 -0.11 -0.887962 2.38981 0.0974835 0.0968459 -0.000269364 0.0972305 1.7088e-06 273.239 
-0.47 -0.09 -0.381087 2.05224 0.0974594 0.0969642 -0.000372015 0.0971907 1.71017e-06 272.908 
-0.41 -0.11 -1.06467 2.83875 0.0974644 0.0968477 -0.000277833 0.0971808 1.70846e-06 273.153 
-0.45 -0.09 -0.272154 2.24338 0.097504 0.0969443 -0.000251276 0.0972764 1.71079e-06 273.049 
-0.39 -0.11 -1.34179 2.8956 0.0974701 0.0968034 -0.00012145 0.0971559 1.70905e-06 272.988 
-0.43 -0.09 -0.549931 2.70819 0.0976312 0.0969909 -0.000305988 0.0972589 1.70868e-06 273.338 
-0.41 -0.09 -0.929757 3.12588 0.0975001 0.0966706 -0.000198724 0.0970639 1.70683e-06 273.085 
-0.39 -0.09 -1.05044 2.94669 0.0975452 0.0967882 -0.000187086 0.0971195 1.70994e-06 272.745 
-0.37 -0.09 -1.33933 3.37319 0.0975063 0.0967212 -9.95686e-05 0.0971172 1.70854e-06 272.962 
-0.35 -0.03 -1.86633 4.11976 0.0974035 0.0964773 -5.65437e-05 0.0969989 1.70506e-06 273.185 
-0.37 -0.07 -1.28898 3.31854 0.0974439 0.0965438 -8.67103e-05 0.0970674 1.70892e-06 272.761 
-0.41 -0.05 -0.910994 3.4245 0.0973388 0.0966429 -0.000286505 0.0970182 1.70625e-06 273.049 
-0.45 -0.03 -0.343418 3.13936 0.0973558 0.0966592 -0.000374906 0.0970552 1.70703e-06 273.029 
-0.35 -0.07 -1.55083 3.53051 0.0975935 0.0965747 -1.61479e-05 0.0970845 1.70855e-06 272.867 
-0.39 -0.05 -0.902419 3.4987 0.0973716 0.0966158 -0.00020152 0.0970742 1.70956e-06 272.677 
-0.43 -0.03 -0.645941 3.35191 0.0974376 0.0967941 -0.0002556 0.0971271 1.70787e-06 273.096 
-0.33 -0.07 -1.80131 3.63075 0.0976129 0.0967122 5.2515e-05 0.0971566 1.71105e-06 272.672 
-0.37 -0.05 -1.40473 3.82136 0.0973852 0.0965546 -0.000110688 0.0969686 1.70791e-06 272.645 
-0.41 -0.03 -1.07512 3.46298 0.097422 0.0966879 -0.000179749 0.0970481 1.70646e-06 273.099 
-0.35 -0.05 -1.76415 3.79131 0.0973317 0.0964298 -4.52357e-05 0.0968939 1.7062e-06 272.708 
-0.39 -0.03 -1.43793 3.75815 0.0972842 0.0964926 -0.000143192 0.0968933 1.70811e-06 272.401 
-0.33 -0.05 -2.11004 4.0267 0.0974827 0.0965962 8.27941e-05 0.0970757 1.70907e-06 272.761 
-0.37 -0.03 -1.49485 4.19358 0.0973991 0.0964432 -0.000122229 0.0969855 1.70795e-06 272.686 
-0.33 -0.03 -2.0857 4.21155 0.0973884 0.0964969 1.17387e-05 0.0969566 1.70613e-06 272.895 
-0.33 -0.01 -2.06816 4.2651 0.0974084 0.0963697 -5.1576e-05 0.0969033 1.70472e-06 272.97 
-0.49 -0.07 -0.139237 1.60333 0.0974122 0.0971531 -0.000442512 0.097256 1.71038e-06 273.058 
-0.47 -0.07 -0.423023 2.18918 0.0974284 0.0968464 -0.000351877 0.0971422 1.70873e-06 273.002 
-0.45 -0.07 -0.568439 2.29419 0.0974499 0.0969279 -0.000343391 0.0971616 1.71076e-06 272.733 
-0.49 -0.05 -0.0744522 1.92878 0.0974182 0.0968864 -0.000514736 0.0971575 1.70868e-06 273.052 
-0.43 -0.07 -0.584759 2.89414 0.0974856 0.0968962 -0.000321049 0.097164 1.70848e-06 273.103 
-0.47 -0.05 -0.00040847 2.2864 0.0974757 0.0970046 -0.000435511 0.0972525 1.71194e-06 272.799 
-0.41 -0.07 -0.783745 3.40824 0.0975707 0.0966703 -0.000190753 0.0970687 1.7082e-06 272.879 
-0.45 -0.05 -0.433534 2.58108 0.0974407 0.0968166 -0.00035247 0.0971862 1.71027e-06 272.879 
-0.49 -0.03 -0.0903294 1.98485 0.0974559 0.0968788 -0.000473815 0.097178 1.70896e-06 273.065 
-0.39 -0.07 -1.02894 3.36374 0.0975533 0.0967288 -0.000205871 0.0970855 1.70771e-06 273.005 
-0.43 -0.05 -0.918661 3.02261 0.0974208 0.096938 -0.000257896 0.0971844 1.70925e-06 273.037 
-0.47 -0.03 -0.0762293 2.38024 0.0974248 0.0969236 -0.000388153 0.0971219 1.7083e-06 273.013 
-0.27 -0.07 -2.80981 3.90496 0.0975581 0.0967509 0.000197454 0.0971888 1.70921e-06 273.056 
-0.31 -0.05 -2.37593 3.81527 0.0975821 0.0967501 9.15328e-05 0.0971711 1.71073e-06 272.763 
-0.27 -0.09 -2.41793 3.64529 0.0976415 0.0968538 0.000139426 0.0973035 1.70893e-06 273.422 
-0.31 -0.07 -1.96581 3.6006 0.097511 0.0967375 0.000123744 0.0971914 1.71164e-06 272.675 
-0.29 -0.07 -2.4614 3.8538 0.097539 0.0968405 0.000169985 0.0972192 1.70835e-06 273.279 
-0.25 -0.07 -2.81258 3.40017 0.0974889 0.0970601 0.000136623 0.0972824 1.71001e-06 273.191 
-0.29 -0.05 -2.64193 4.1689 0.0976093 0.0967881 0.000124864 0.0971461 1.70784e-06 273.155 
-0.27 -0.05 -2.47498 4.03169 0.0975624 0.0967213 0.000129049 0.0971707 1.70831e-06 273.148 
-0.31 -0.03 -2.46412 4.17728 0.0973914 0.0967774 1.97715e-05 0.0970913 1.70996e-06 272.662 
-0.25 -0.05 -2.73911 3.64247 0.0974904 0.096925 0.00025693 0.0971886 1.70986e-06 272.951 
-0.29 -0.03 -2.50618 4.19172 0.09748 0.0967262 7.73521e-05 0.0971032 1.70891e-06 272.863 
-0.27 -0.03 -2.82272 4.122 0.0974745 0.0966289 0.000190252 0.0971974 1.70752e-06 273.35 
-0.31 -0.01 -2.36545 4.66768 0.0974681 0.0967716 -1.93507e-05 0.0971772 1.71011e-06 272.879 
-0.25 -0.03 -2.91222 4.02457 0.0975196 0.0969329 0.000257388 0.0972498 1.71176e-06 272.821 
-0.29 -0.01 -2.70029 4.4634 0.0973559 0.0966132 0.00011932 0.0970742 1.70714e-06 273.064 
-0.27 -0.01 -3.00386 4.32633 0.0972402 0.0965961 0.000148663 0.0971134 1.70854e-06 272.952 
-0.33 -0.25 -1.04173 1.3647 0.0978058 0.0970345 1.52655e-05 0.0974294 1.71416e-06 272.942 
-0.31 -0.25 -1.49989 1.58313 0.0978196 0.09721 1.74757e-05 0.0975309 1.71526e-06 273.049 
-0.29 -0.25 -1.89167 1.92948 0.0977219 0.0970791 0.000213717 0.0974301 1.71287e-06 273.148 
-0.27 -0.25 -2.19421 2.02303 0.0977381 0.0971065 0.000185587 0.0974476 1.71387e-06 273.038 
-0.29 -0.11 -2.42311 3.41864 0.0976622 0.0968665 0.000107821 0.0972662 1.7108e-06 273.019 
-0.27 -0.11 -2.64867 3.23441 0.0975478 0.0968731 0.000236735 0.0972432 1.70801e-06 273.401 
-0.31 -0.09 -2.10372 3.30722 0.0976043 0.0969299 8.34426e-05 0.0973324 1.71218e-06 272.984 
-0.29 -0.09 -2.02182 3.58392 0.0975276 0.0967719 0.000137192 0.0971767 1.70863e-06 273.115 
-0.31 -0.23 -1.71249 2.0082 0.0975429 0.0971485 9.69385e-05 0.0973911 1.71271e-06 273.065 
-0.29 -0.23 -1.99691 2.08784 0.0976834 0.0969692 6.38494e-05 0.0973392 1.71157e-06 273.101 
-0.27 -0.23 -1.8842 2.09263 0.0978084 0.0972255 0.000143288 0.0975277 1.71358e-06 273.309 
-0.31 -0.21 -1.85702 2.16029 0.0977353 0.0971186 4.18785e-05 0.0973786 1.71198e-06 273.146 
-0.29 -0.21 -1.79401 2.09545 0.0976609 0.0969299 1.38355e-05 0.0973428 1.71213e-06 273.022 
-0.27 -0.21 -1.82571 2.30669 0.0976935 0.097126 9.46807e-05 0.0974311 1.71154e-06 273.364 
-0.31 -0.19 -1.55157 2.41046 0.0976549 0.0970985 -1.37541e-05 0.0973054 1.70984e-06 273.282 
-0.25 -0.21 -2.14563 2.14386 0.0978464 0.0972375 0.000218245 0.0974561 1.71214e-06 273.338 
-0.29 -0.19 -1.72648 2.13271 0.0976404 0.0969558 -4.70095e-06 0.0972986 1.71173e-06 272.962 
-0.27 -0.19 -2.02561 2.35613 0.0975885 0.0970255 0.000118331 0.0973348 1.71047e-06 273.265 
-0.31 -0.17 -1.90472 2.49028 0.0976566 0.0970707 4.18737e-05 0.0973816 1.71211e-06 273.133 
-0.25 -0.19 -2.16805 2.50978 0.0974503 0.0970655 0.0001875 0.0972646 1.71305e-06 272.656 
-0.29 -0.17 -2.1223 2.40866 0.0975027 0.0968114 0.000145254 0.0972108 1.70899e-06 273.152 
-0.27 -0.17 -2.44326 2.79887 0.0975406 0.0970392 0.00014049 0.097317 1.71145e-06 273.058 
-0.31 -0.15 -1.97498 2.67969 0.0975755 0.0969367 8.17625e-05 0.0972954 1.71161e-06 272.971 
-0.25 -0.17 -2.72879 2.51279 0.0975038 0.097007 0.000215259 0.0972214 1.7108e-06 272.893 
-0.29 -0.15 -2.18282 2.66019 0.0976389 0.0969754 0.000115366 0.0973278 1.71124e-06 273.122 
-0.27 -0.15 -2.41509 2.97541 0.0975801 0.0968574 0.000182171 0.0972006 1.71052e-06 272.879 
-0.31 -0.13 -2.03894 2.83012 0.0975564 0.0969083 0.000194436 0.0972983 1.71008e-06 273.225 
-0.25 -0.15 -2.69485 2.74918 0.0975108 0.0969849 0.000214962 0.0971957 1.709e-06 273.108 
-0.29 -0.13 -2.38191 3.12144 0.0975175 0.0969029 0.000174657 0.0972259 1.71e-06 273.033 
-0.27 -0.13 -2.62859 2.98337 0.0975286 0.0968244 0.000116495 0.0970989 1.70789e-06 273.013 
-0.31 -0.11 -2.07596 3.0978 0.0975706 0.0969161 0.000148439 0.0972484 1.71021e-06 273.063 
-0.25 -0.13 -2.63801 2.92555 0.0976168 0.0969452 0.000224983 0.0972711 1.71098e-06 273.004 
-0.25 -0.23 -2.10003 1.95421 0.0977132 0.097309 0.000152797 0.097457 1.71409e-06 273.029 
-0.25 -0.11 -2.90609 3.04334 0.0975255 0.0969787 0.000159009 0.0972067 1.70917e-06 273.113 
-0.25 -0.09 -2.78905 3.08886 0.0976924 0.0970037 0.000159113 0.0974289 1.70988e-06 273.623 
-0.25 -0.01 -3.21473 4.19892 0.0973184 0.0969186 0.000185299 0.0971194 1.71056e-06 272.646 
-0.23 -0.49 -0.531363 0.219366 0.0973132 0.097462 0.000234078 0.0974532 1.7145e-06 272.953 
-0.21 -0.49 -0.70272 -0.0565979 0.0973049 0.0970688 0.000210328 0.0972938 1.71084e-06 273.09 
-0.19 -0.49 -0.815282 0.0193536 0.0973405 0.097312 0.000205481 0.0973415 1.71236e-06 272.981 
-0.23 -0.47 -0.871028 -0.0309069 0.0975156 0.0974455 0.000313274 0.0974697 1.7164e-06 272.697 
-0.17 -0.49 -0.661924 -0.276261 0.0973431 0.0974558 0.000237034 0.0974457 1.7145e-06 272.933 
-0.21 -0.47 -0.829902 0.154438 0.0974361 0.0971147 0.000266786 0.0973223 1.71066e-06 273.199 
-0.15 -0.49 -0.574886 0.0947006 0.097397 0.0975568 0.000240572 0.097527 1.71556e-06 272.992 