ITEM: TIMESTEP
925000
ITEM: NUMBER OF CELLS
2500
ITEM: BOX BOUNDS ss ss pp
-0.5 0.5
-0.5 0.5
-0.5 0.5
ITEM: CELLS xc yc f_U[*] f_V[*] f_Tau[1] f_Tau[2] f_Tau[3] f_Press[*] f_Mrho[*] f_Ttra[*] 
-0.49 -0.49 -0.0279498 0.031014 0.0974104 0.0974069 -1.18322e-05 0.0973858 1.71253e-06 273.079 
-0.47 -0.49 -0.0420208 -0.0596629 0.0974328 0.0974858 -1.1106e-05 0.0974967 1.71459e-06 273.061 
-0.45 -0.49 0.0488308 -0.0554411 0.0975081 0.0973936 -3.27527e-05 0.0975587 1.71549e-06 273.091 
-0.49 -0.47 -0.0447299 0.0296851 0.097361 0.0974231 -4.22233e-05 0.0973373 1.71233e-06 272.974 
-0.43 -0.49 0.0233218 0.0669336 0.0975356 0.0974403 -1.76895e-06 0.0974307 1.71385e-06 272.993 
-0.47 -0.47 0.0760343 -0.00169791 0.0973978 0.0974241 5.2401e-05 0.0974046 1.7133e-06 273.008 
-0.41 -0.49 -0.063441 0.0628929 0.0974939 0.0973492 0.000110995 0.097387 1.7142e-06 272.817 
-0.45 -0.47 -0.129991 0.00452246 0.0973172 0.0974296 -2.85769e-05 0.0974215 1.71406e-06 272.935 
-0.49 -0.45 0.101099 -0.0834039 0.0973583 0.0973888 -1.89274e-05 0.0973172 1.71149e-06 273.052 
-0.39 -0.49 -0.13973 -0.0870859 0.0974108 0.0972642 7.11594e-05 0.0973912 1.71468e-06 272.752 
-0.43 -0.47 -0.115818 0.00326631 0.0972457 0.0973268 6.36524e-05 0.0973087 1.71181e-06 272.978 
-0.47 -0.45 0.123 -0.0822671 0.0972906 0.0974159 -7.38168e-05 0.0973134 1.71108e-06 273.107 
-0.37 -0.49 -0.228684 0.102083 0.0974267 0.097319 0.000127989 0.0974446 1.71415e-06 272.985 
-0.41 -0.47 -0.32014 0.192356 0.0973828 0.097382 5.02387e-05 0.0974065 1.7134e-06 272.998 
-0.45 -0.45 0.116402 0.245563 0.0973693 0.0973167 0.000124514 0.0973532 1.71324e-06 272.874 
-0.49 -0.43 -0.0999229 -0.120698 0.0974244 0.0972592 4.28374e-05 0.0974017 1.71278e-06 273.083 
-0.35 -0.49 -0.38661 0.15895 0.0974556 0.0973629 7.31484e-05 0.0975186 1.71543e-06 272.989 
-0.39 -0.47 -0.305577 0.0113558 0.0974664 0.0972661 0.000119425 0.097401 1.71173e-06 273.248 
-0.43 -0.45 -0.198373 -0.0203657 0.0974079 0.097472 1.39961e-05 0.0974435 1.71482e-06 272.876 
-0.47 -0.43 -0.166408 -0.0444795 0.0974846 0.0974811 4.09612e-06 0.0975232 1.7136e-06 273.293 
-0.37 -0.47 -0.275965 0.222822 0.0974613 0.097302 4.92623e-05 0.0973339 1.71108e-06 273.165 
-0.41 -0.45 -0.0792467 0.384692 0.0973441 0.0972861 1.55098e-05 0.0973438 1.71355e-06 272.798 
-0.45 -0.43 -0.312886 0.462882 0.0974685 0.0973543 7.09957e-05 0.097482 1.7135e-06 273.194 
-0.49 -0.41 0.0607619 -0.0479637 0.0974256 0.097344 6.66111e-05 0.097409 1.71388e-06 272.929 
-0.35 -0.47 -0.357357 0.135394 0.0975072 0.0973373 0.000139376 0.0973902 1.71184e-06 273.202 
-0.39 -0.45 -0.233201 0.0584167 0.0972742 0.0972289 7.2573e-05 0.0972456 1.70984e-06 273.115 
-0.43 -0.43 -0.45762 0.157641 0.0975187 0.097334 -2.89915e-05 0.0974563 1.71271e-06 273.248 
-0.47 -0.41 -0.0938847 0.189323 0.0974102 0.0974003 -1.59459e-05 0.0973806 1.71273e-06 273.032 
-0.37 -0.45 -0.299506 0.21406 0.0973221 0.0973827 4.12998e-05 0.0973489 1.71163e-06 273.119 
-0.41 -0.43 -0.437683 0.166315 0.0974217 0.09724 5.07216e-05 0.0973845 1.71315e-06 272.976 
-0.45 -0.41 -0.215376 0.354505 0.0974526 0.0974144 2.31445e-05 0.0974974 1.71509e-06 272.983 
-0.49 -0.39 -0.196844 0.144338 0.0974137 0.0974187 -1.89653e-05 0.0974734 1.71277e-06 273.286 
-0.35 -0.45 -0.410293 0.156146 0.097224 0.0972211 0.000108165 0.0971995 1.71012e-06 272.94 
-0.39 -0.43 -0.173133 -0.00829967 0.0974046 0.0972797 9.0688e-05 0.0973706 1.71213e-06 273.1 
-0.43 -0.41 -0.198598 0.32212 0.0973742 0.0972792 7.56886e-05 0.0973543 1.71083e-06 273.261 
-0.47 -0.39 -0.263359 0.0587899 0.0973929 0.097402 5.85461e-06 0.0973851 1.71302e-06 272.999 
-0.33 -0.45 -0.458703 0.19725 0.0973623 0.0973079 0.000112049 0.0973636 1.71371e-06 272.828 
-0.37 -0.43 -0.49922 0.449234 0.0974662 0.0973487 7.49559e-05 0.0974139 1.71334e-06 273.028 
-0.41 -0.41 -0.486295 0.174333 0.0973652 0.0972386 7.97324e-05 0.0973665 1.71327e-06 272.906 
-0.45 -0.39 -0.124261 0.50128 0.0974582 0.0973304 -3.89791e-05 0.0973897 1.71321e-06 272.981 
-0.35 -0.43 -0.450735 0.316277 0.0974238 0.0973275 9.34794e-05 0.0973625 1.71157e-06 273.166 
-0.39 -0.41 -0.765875 0.265427 0.0974727 0.0973544 6.97031e-06 0.0974175 1.71284e-06 273.118 
-0.43 -0.39 -0.205503 0.439918 0.0975754 0.0972958 1.88206e-05 0.0974306 1.71405e-06 272.962 
-0.37 -0.41 -0.721627 0.489083 0.0974177 0.0972076 7.22161e-05 0.0973537 1.71026e-06 273.352 
-0.41 -0.39 -0.4375 0.46798 0.0976327 0.0973129 5.18525e-05 0.0974819 1.71385e-06 273.137 
-0.35 -0.41 -0.793932 0.266156 0.0974693 0.0973315 7.68536e-05 0.0974528 1.71312e-06 273.172 
-0.39 -0.39 -0.619508 0.396776 0.0975902 0.0974181 2.11662e-05 0.0975372 1.71303e-06 273.424 
-0.33 -0.41 -0.714039 0.291189 0.0975036 0.097336 3.47269e-05 0.097413 1.7121e-06 273.224 
-0.37 -0.39 -0.513041 0.301691 0.0974823 0.0971238 2.47512e-05 0.0974305 1.71147e-06 273.373 
-0.35 -0.39 -0.366497 0.338253 0.0974957 0.0973011 6.31953e-05 0.0974694 1.7113e-06 273.51 
-0.33 -0.39 -0.437415 0.355197 0.0975991 0.0972706 0.000112096 0.0974539 1.71325e-06 273.155 
-0.37 -0.37 -0.612762 0.247926 0.0976205 0.0971765 8.42869e-05 0.0973445 1.71241e-06 272.982 
-0.49 -0.37 -0.00310186 0.179141 0.0975484 0.0974479 -6.32969e-05 0.0975294 1.71475e-06 273.128 
-0.47 -0.37 -0.0219093 0.437423 0.0975919 0.0974657 -7.08969e-06 0.0975591 1.71494e-06 273.181 
-0.45 -0.37 -0.301526 0.327976 0.097545 0.0971997 -3.41822e-05 0.0973702 1.71382e-06 272.83 
-0.49 -0.35 -0.13047 0.406785 0.0974957 0.0973704 -8.07645e-05 0.0974823 1.71358e-06 273.181 
-0.43 -0.37 -0.32247 0.623382 0.0975572 0.0972381 -3.89775e-05 0.0974437 1.71512e-06 272.829 
-0.47 -0.35 -0.391076 0.305945 0.0975489 0.097393 -1.1752e-05 0.0974711 1.71541e-06 272.859 
-0.45 -0.35 -0.177849 0.559071 0.0976319 0.0973059 8.08584e-06 0.0974481 1.71304e-06 273.172 
-0.49 -0.33 -0.0741359 0.630542 0.0975679 0.0973083 -0.00012286 0.0975151 1.71534e-06 272.994 
-0.39 -0.37 -0.434364 0.485268 0.0975674 0.0973772 2.40635e-05 0.0975291 1.71294e-06 273.415 
-0.43 -0.35 -0.377895 0.682406 0.0975914 0.0971656 -5.89134e-05 0.097422 1.71307e-06 273.094 
-0.47 -0.33 0.0464604 0.24091 0.0975365 0.0973368 -3.92963e-05 0.0974249 1.71314e-06 273.092 
-0.41 -0.35 -0.371964 0.575651 0.0975938 0.0973399 2.49319e-05 0.0975563 1.71599e-06 273.006 
-0.45 -0.33 -0.0906006 0.510481 0.0975529 0.0973847 -7.34341e-05 0.0974784 1.71394e-06 273.113 
-0.49 -0.31 0.107264 0.62348 0.097387 0.0972939 -0.00012227 0.0973317 1.71224e-06 272.972 
-0.39 -0.35 -0.467838 0.606365 0.0976368 0.0973053 1.58655e-06 0.0975708 1.7146e-06 273.267 
-0.43 -0.33 -0.0776285 0.848239 0.0974922 0.0970921 -5.02957e-05 0.0973675 1.71374e-06 272.835 
-0.47 -0.31 -0.147553 0.257398 0.0974745 0.0973011 -7.36799e-05 0.097435 1.71179e-06 273.335 
-0.37 -0.35 -0.49795 0.388558 0.0976194 0.0972089 6.87309e-05 0.0974192 1.71287e-06 273.117 
-0.41 -0.33 -0.316797 0.674543 0.0975894 0.0973179 -5.3275e-05 0.0974738 1.71417e-06 273.064 
-0.45 -0.31 -0.163908 0.528998 0.09749 0.0973064 -1.07819e-06 0.097492 1.71235e-06 273.406 
-0.49 -0.29 0.0117725 0.553064 0.0975072 0.0972379 -9.95689e-05 0.0974078 1.71377e-06 272.943 
-0.35 -0.35 -0.69119 0.493424 0.0975459 0.0972965 4.88191e-06 0.0974418 1.71465e-06 272.898 
-0.39 -0.33 -0.408778 0.757629 0.0976663 0.0972316 -2.78569e-06 0.097527 1.71357e-06 273.309 
-0.43 -0.31 -0.134031 0.906322 0.097576 0.0973404 -6.01041e-05 0.0974525 1.71225e-06 273.311 
-0.47 -0.29 -0.0502658 0.632308 0.0974909 0.0971968 -0.000135724 0.0973873 1.71124e-06 273.289 
-0.37 -0.33 -0.661328 0.611647 0.097725 0.0972542 5.99812e-05 0.0975392 1.7152e-06 273.083 
-0.41 -0.31 -0.168863 0.85738 0.0975392 0.0972105 -0.000167059 0.0973768 1.71197e-06 273.144 
-0.45 -0.29 -0.483328 0.621302 0.0975763 0.0973838 -5.58619e-05 0.0975872 1.71443e-06 273.341 
-0.49 -0.27 -0.0643463 0.621899 0.097614 0.0973406 -5.67516e-05 0.0974845 1.71252e-06 273.357 
-0.35 -0.33 -0.937279 0.685773 0.097731 0.097315 0.000142185 0.0975618 1.71397e-06 273.342 
-0.39 -0.31 -0.416293 0.85348 0.0975798 0.0971931 6.48594e-06 0.0974308 1.71316e-06 273.105 
-0.43 -0.29 -0.510092 0.637104 0.0976465 0.0972891 -0.000109054 0.0975663 1.71346e-06 273.436 
-0.47 -0.27 -0.115872 0.597265 0.0976328 0.0972349 -0.000174621 0.0974235 1.71306e-06 273.1 
-0.33 -0.33 -1.14261 0.717442 0.0976374 0.0971829 0.000107042 0.0974542 1.71473e-06 272.92 
-0.37 -0.31 -0.75932 1.03101 0.0974746 0.0971072 4.48766e-06 0.0973562 1.71297e-06 272.925 
-0.41 -0.29 -0.53436 1.15311 0.0976391 0.0972422 -5.50954e-05 0.0974961 1.71512e-06 272.976 
-0.45 -0.27 0.0544249 1.04512 0.0976113 0.0973206 -0.000120901 0.0975111 1.71268e-06 273.407 
-0.35 -0.31 -1.01747 0.908358 0.0975041 0.0973398 0.000133592 0.0974526 1.71221e-06 273.316 
-0.39 -0.29 -0.678528 1.02614 0.0974384 0.0970017 -7.36775e-05 0.0972435 1.71137e-06 272.864 
-0.43 -0.27 -0.412655 0.87212 0.097534 0.0971633 -9.03335e-05 0.0974191 1.71381e-06 272.968 
-0.37 -0.29 -0.69023 1.30018 0.0974802 0.0971016 4.60716e-05 0.0972718 1.711e-06 273.003 
-0.41 -0.27 -0.568525 1.16397 0.0975982 0.097282 -5.44728e-05 0.0974487 1.7157e-06 272.75 
-0.35 -0.29 -0.978273 0.937254 0.0976181 0.0973045 1.227e-05 0.0974803 1.71364e-06 273.167 
-0.39 -0.27 -0.561985 1.17415 0.0976257 0.0969745 -3.27594e-05 0.0973043 1.71209e-06 272.92 
-0.33 -0.29 -0.993543 1.1885 0.0976103 0.0971283 0.000114443 0.0973359 1.71222e-06 272.987 
-0.37 -0.27 -0.746886 1.38395 0.0977186 0.0970941 -8.38652e-05 0.0973987 1.71392e-06 272.893 
-0.35 -0.27 -1.038 1.2067 0.0977939 0.0971091 -1.47732e-05 0.0974881 1.71506e-06 272.962 
-0.41 -0.37 -0.282839 0.594289 0.0975567 0.0973668 3.06554e-05 0.0975322 1.7159e-06 272.952 
-0.35 -0.37 -0.571794 0.365444 0.0976295 0.0972704 -1.16912e-05 0.0974144 1.71366e-06 272.979 
-0.45 -0.25 -0.357099 1.10147 0.0976971 0.0971575 -0.000163368 0.0974768 1.71339e-06 273.196 
-0.37 -0.25 -0.775289 1.35975 0.0976803 0.0970118 -5.38955e-05 0.0973378 1.71308e-06 272.857 
-0.35 -0.25 -0.693166 1.41297 0.0976914 0.0970366 1.43553e-05 0.0973907 1.71497e-06 272.704 
-0.33 -0.49 -0.460888 0.0483582 0.0973905 0.0972944 9.84943e-05 0.0973726 1.71333e-06 272.914 
-0.31 -0.49 -0.604456 0.01441 0.0974455 0.0972392 0.000136952 0.0973581 1.71256e-06 272.997 
-0.29 -0.49 -0.672777 -0.00738499 0.0974978 0.0974209 0.000150428 0.0974805 1.71658e-06 272.699 
-0.33 -0.47 -0.395625 0.157973 0.0975182 0.097293 0.000140317 0.0974318 1.71562e-06 272.716 
-0.27 -0.49 -0.509582 0.0502603 0.0975225 0.0974764 0.00021882 0.0974754 1.71539e-06 272.874 
-0.31 -0.47 -0.467654 0.0860338 0.097424 0.0972421 0.0001105 0.0973374 1.71285e-06 272.892 
-0.29 -0.47 -0.613153 0.0589282 0.0974344 0.0973571 0.000184647 0.0973645 1.71362e-06 272.846 
-0.27 -0.47 -0.717476 -0.0359799 0.0974016 0.0972962 0.000149824 0.0973838 1.71376e-06 272.878 
-0.31 -0.45 -0.475849 0.362655 0.0975059 0.0973381 9.00091e-05 0.0974667 1.71421e-06 273.038 
-0.29 -0.45 -0.633775 0.191034 0.0974659 0.0973716 0.000111286 0.0974042 1.71343e-06 272.987 
-0.33 -0.43 -0.660187 0.199877 0.0974122 0.0972326 6.15263e-05 0.0973862 1.71254e-06 273.079 
-0.27 -0.45 -0.856582 -0.121531 0.0974652 0.0973241 0.000146638 0.0973523 1.71162e-06 273.13 
-0.31 -0.43 -0.573435 0.342581 0.0974016 0.0972661 8.44681e-05 0.0973437 1.71214e-06 273.023 
-0.29 -0.43 -0.704793 0.442258 0.0974127 0.0972941 0.00016432 0.0973644 1.71118e-06 273.233 
-0.27 -0.43 -0.649975 -0.102326 0.097473 0.0972116 0.000178757 0.0973442 1.70995e-06 273.374 
-0.31 -0.41 -0.643487 0.268671 0.0974053 0.0971286 9.18152e-05 0.0972558 1.71011e-06 273.099 
-0.29 -0.41 -0.678623 0.49265 0.0974713 0.0972908 8.57161e-05 0.0973788 1.71036e-06 273.406 
-0.27 -0.41 -0.973177 0.00221372 0.0974427 0.0972431 0.000147041 0.0972828 1.70907e-06 273.342 
-0.31 -0.39 -0.834355 0.303459 0.0976817 0.0971964 4.37199e-05 0.0973879 1.71449e-06 272.772 
-0.29 -0.39 -0.73635 0.540728 0.0975895 0.0972331 0.00012657 0.097392 1.71207e-06 273.17 
-0.33 -0.37 -0.634926 0.563159 0.0975763 0.0972562 -3.16903e-06 0.0974374 1.71256e-06 273.219 
-0.27 -0.39 -0.98884 0.378333 0.0975592 0.097233 0.000169831 0.0974099 1.71251e-06 273.149 
-0.31 -0.37 -0.8697 0.577262 0.0975291 0.0971312 0.000112989 0.0973138 1.71127e-06 273.077 
-0.29 -0.37 -1.02 0.39615 0.0975303 0.097144 0.000166385 0.0973975 1.71142e-06 273.289 
-0.33 -0.35 -0.832438 0.725015 0.0976306 0.0972081 8.07363e-05 0.0974247 1.71331e-06 273.064 
-0.27 -0.37 -1.14572 0.730814 0.0976534 0.0972153 0.00011878 0.0974452 1.71232e-06 273.279 
-0.31 -0.35 -0.997292 0.836005 0.0976262 0.0971333 0.000116644 0.097381 1.71482e-06 272.7 
-0.29 -0.35 -1.42018 0.61821 0.0976406 0.0972114 9.77102e-05 0.0974003 1.71345e-06 272.972 
-0.27 -0.35 -1.4863 0.972704 0.0976301 0.0971924 6.69693e-05 0.0973754 1.71461e-06 272.718 
-0.31 -0.33 -1.07274 1.02893 0.0976129 0.0969951 8.25482e-05 0.0973522 1.71374e-06 272.792 
-0.29 -0.33 -1.1147 0.881649 0.0976029 0.0971714 9.63752e-05 0.0974419 1.71385e-06 273.026 
-0.33 -0.31 -1.24262 0.781977 0.097614 0.097161 8.97862e-05 0.0973747 1.71407e-06 272.802 
-0.27 -0.33 -1.52459 1.1494 0.0976609 0.0972423 0.000113179 0.0975212 1.71566e-06 272.96 
-0.31 -0.31 -1.16472 0.927191 0.0975786 0.0970782 0.000108644 0.0974589 1.71473e-06 272.932 
-0.29 -0.31 -1.35334 1.21525 0.097653 0.0971794 7.9479e-05 0.097502 1.71528e-06 272.966 
-0.27 -0.31 -1.42932 1.30311 0.0976395 0.0971901 8.62079e-05 0.0974591 1.71322e-06 273.174 
-0.31 -0.29 -1.44542 0.984693 0.0976582 0.0970819 0.000110788 0.0973369 1.71175e-06 273.065 
-0.29 -0.29 -1.38895 1.30954 0.0976914 0.097169 7.27879e-05 0.0974618 1.71373e-06 273.101 
-0.27 -0.29 -1.63715 1.32383 0.0977109 0.0972128 0.000106779 0.0974893 1.71454e-06 273.049 
-0.31 -0.27 -1.15652 1.18979 0.0977363 0.0971482 5.00943e-05 0.0974264 1.71208e-06 273.264 
-0.25 -0.29 -1.79897 1.30397 0.0976463 0.0972728 0.000207692 0.0974993 1.71448e-06 273.086 
-0.29 -0.27 -1.46039 1.50821 0.0977082 0.0971774 5.32425e-05 0.0974024 1.70999e-06 273.531 
-0.27 -0.27 -1.79536 1.63519 0.0976216 0.0970679 0.00012579 0.0973334 1.7105e-06 273.255 
-0.25 -0.27 -2.17807 1.67252 0.0976735 0.0972429 0.000168446 0.0973935 1.71214e-06 273.162 
-0.33 -0.27 -1.22363 1.24216 0.0978353 0.0971146 8.4896e-05 0.0974041 1.71271e-06 273.101 
-0.25 -0.49 -0.585149 -0.136459 0.0974443 0.0974728 0.000258046 0.0974879 1.71458e-06 273.038 
-0.25 -0.47 -0.58775 0.0833235 0.0975751 0.0975421 0.000284351 0.0974755 1.71416e-06 273.07 
-0.25 -0.45 -0.831645 0.127474 0.0974112 0.0973774 0.000185401 0.0973479 1.71054e-06 273.289 
-0.25 -0.37 -1.3706 0.58709 0.0975923 0.0973539 0.000151033 0.0974902 1.7129e-06 273.312 
-0.25 -0.35 -1.66392 0.628103 0.0977036 0.0973148 0.000150834 0.0975033 1.71541e-06 272.95 
-0.25 -0.33 -1.66463 0.85814 0.0976209 0.0971821 4.54399e-05 0.097476 1.71406e-06 273.088 
-0.25 -0.25 -2.29092 1.82532 0.0977838 0.0973407 6.54643e-05 0.0975898 1.71504e-06 273.25 
-0.49 -0.25 -0.0448493 0.700746 0.0977289 0.0973681 -9.73232e-05 0.0975829 1.71417e-06 273.37 
-0.47 -0.25 -0.0741311 0.605923 0.0976662 0.0972088 -0.000184637 0.0974919 1.71314e-06 273.28 
-0.49 -0.23 0.0502724 0.528715 0.0973614 0.0972396 -0.000216143 0.0973413 1.71123e-06 273.162 
-0.47 -0.23 0.0822 1.05808 0.0975216 0.0972803 -0.000160897 0.0973706 1.71276e-06 272.999 
-0.45 -0.23 -0.207721 1.22601 0.0974737 0.0970791 -0.000182333 0.0973094 1.71219e-06 272.919 
-0.49 -0.21 -0.143658 0.763927 0.0976845 0.0972938 -0.000214327 0.0975877 1.71523e-06 273.214 
-0.43 -0.23 -0.406405 1.22293 0.0975834 0.0972377 -0.000179807 0.0973735 1.713e-06 272.969 
-0.47 -0.21 -0.344309 0.836155 0.0975556 0.0972768 -0.000156596 0.0974883 1.71499e-06 272.974 
-0.41 -0.23 -0.599705 1.49199 0.0976946 0.0971479 -5.13623e-05 0.0974208 1.71322e-06 273.067 
-0.45 -0.21 -0.0874908 1.37826 0.0976118 0.0971097 -0.000230406 0.0974157 1.71409e-06 272.914 
-0.49 -0.19 -0.0505412 1.01061 0.0975903 0.0971598 -0.000221072 0.0974257 1.71545e-06 272.725 
-0.39 -0.23 -0.620727 1.41701 0.097697 0.0971403 -8.58514e-05 0.0974447 1.71498e-06 272.853 
-0.43 -0.21 -0.414318 1.59184 0.0976575 0.0971674 -0.000199039 0.0974494 1.71484e-06 272.889 
-0.47 -0.19 -0.335944 1.08236 0.0977136 0.097378 -0.000217284 0.0975536 1.71681e-06 272.867 
-0.41 -0.21 -0.615751 1.52944 0.0975607 0.0970623 -0.000157348 0.0973127 1.71123e-06 273.081 
-0.45 -0.19 -0.749848 1.42044 0.0976596 0.097127 -0.000230703 0.0973931 1.71283e-06 273.051 
-0.49 -0.17 -0.226085 1.15348 0.0975473 0.0971419 -0.000231462 0.0973527 1.71187e-06 273.091 
-0.39 -0.21 -0.688823 1.4667 0.0976419 0.097 -2.49923e-05 0.0973641 1.71082e-06 273.29 
-0.43 -0.19 -0.54127 1.5163 0.0976872 0.097056 -0.000177623 0.0974559 1.7127e-06 273.248 
-0.47 -0.17 -0.346411 1.29876 0.0975776 0.0973199 -0.000239028 0.0974882 1.71411e-06 273.114 
-0.41 -0.19 -0.424922 1.56341 0.0977694 0.0970549 -0.000137202 0.0974055 1.71253e-06 273.134 
-0.45 -0.17 -0.309393 1.55057 0.0976916 0.097141 -0.000278054 0.0974168 1.71307e-06 273.08 
-0.49 -0.15 0.0217358 1.33039 0.0974163 0.097177 -0.000266423 0.0972522 1.71295e-06 272.638 
-0.39 -0.19 -0.885114 1.96276 0.0978095 0.0969772 -0.000105871 0.0973545 1.71096e-06 273.241 
-0.43 -0.17 -0.348394 1.38668 0.0977151 0.0970272 -0.000186875 0.0974013 1.71187e-06 273.228 
-0.47 -0.15 -0.228952 1.39047 0.0975872 0.0973124 -0.000327314 0.0974942 1.71398e-06 273.151 
-0.41 -0.17 -0.671733 1.94999 0.0976615 0.0969879 -0.000172823 0.0973083 1.71152e-06 273.023 
-0.45 -0.15 -0.337131 1.49849 0.097539 0.0971435 -0.000250714 0.0973229 1.71248e-06 272.911 
-0.39 -0.17 -0.911567 2.29525 0.0975637 0.0969384 -7.24843e-05 0.097284 1.7111e-06 273.021 
-0.43 -0.15 -0.453945 1.81375 0.0975345 0.0968833 -0.000158051 0.0972489 1.70994e-06 273.107 
-0.41 -0.15 -0.85808 2.10471 0.0974952 0.0969611 -0.000107214 0.0972211 1.71099e-06 272.863 
-0.39 -0.15 -0.973929 2.4948 0.0976249 0.0968887 -0.000104077 0.0973372 1.71218e-06 272.998 
-0.43 -0.25 -0.376972 1.16328 0.0977365 0.0972067 -5.69668e-05 0.0975728 1.71449e-06 273.289 
-0.41 -0.25 -0.538875 1.30105 0.0977141 0.0972126 -8.5524e-05 0.0975194 1.7149e-06 273.075 
-0.39 -0.25 -0.688032 1.40114 0.0977454 0.0970634 -8.49564e-05 0.0973814 1.71305e-06 272.983 
-0.37 -0.23 -0.716464 1.54793 0.0975561 0.0969749 -8.84728e-08 0.0973333 1.7141e-06 272.682 
-0.35 -0.23 -1.23939 1.70206 0.0976638 0.097085 -6.73885e-05 0.0973721 1.71439e-06 272.744 
-0.33 -0.23 -1.43892 1.60471 0.097595 0.0969659 -4.03221e-05 0.0972835 1.71154e-06 272.949 
-0.37 -0.21 -1.06219 2.08303 0.0977943 0.0970331 -6.23015e-05 0.0974637 1.71263e-06 273.282 
-0.35 -0.21 -1.22493 1.97934 0.0977346 0.0971139 -0.000114595 0.0974401 1.71378e-06 273.032 
-0.33 -0.21 -1.5897 1.97107 0.0977721 0.0969568 1.82365e-05 0.0973846 1.71249e-06 273.082 
-0.37 -0.19 -1.1416 2.13091 0.0978033 0.0971088 -0.000102216 0.0975574 1.71497e-06 273.17 
-0.35 -0.19 -1.32549 2.30902 0.0976877 0.0969576 5.18797e-05 0.0973245 1.71298e-06 272.835 
-0.33 -0.19 -1.49164 2.2243 0.0975836 0.0968725 6.72746e-05 0.0972629 1.70895e-06 273.306 
-0.37 -0.17 -1.16549 2.55228 0.0975218 0.0969924 -1.90899e-05 0.0973151 1.71133e-06 273.071 
-0.35 -0.17 -1.64393 2.34616 0.0975489 0.0969142 8.26759e-05 0.0972418 1.70874e-06 273.28 
-0.33 -0.17 -1.77132 2.37358 0.0976544 0.096995 1.92568e-05 0.0973503 1.71135e-06 273.168 
-0.37 -0.15 -1.02191 2.86584 0.0976173 0.0968557 -6.89282e-06 0.097236 1.70973e-06 273.104 
-0.35 -0.15 -1.21064 2.64857 0.0976 0.0969731 1.6855e-06 0.0972958 1.71033e-06 273.177 
-0.33 -0.15 -1.59996 2.6591 0.0975928 0.0969253 3.56481e-05 0.0971522 1.70871e-06 273.033 
-0.35 -0.13 -1.45309 2.99787 0.0976824 0.0968596 2.06707e-05 0.0972508 1.71035e-06 273.048 
-0.33 -0.13 -1.81002 2.94757 0.0976416 0.0968817 0.000115302 0.097289 1.71204e-06 272.885 
-0.33 -0.09 -1.83815 3.58877 0.0974902 0.0966068 5.37092e-05 0.0970588 1.70914e-06 272.702 
-0.37 -0.13 -1.49333 2.92829 0.0976699 0.0968611 -7.32709e-05 0.0971975 1.70954e-06 273.028 
-0.37 -0.11 -1.5372 2.95494 0.0974809 0.0966873 -0.000115586 0.0970664 1.70692e-06 273.078 
-0.35 -0.11 -1.75234 3.12578 0.0975235 0.0968404 -2.60294e-05 0.0972039 1.70892e-06 273.144 
-0.33 -0.11 -1.79368 3.32069 0.0975212 0.0967292 0.000116059 0.0971826 1.71133e-06 272.7 
-0.35 -0.09 -1.53532 3.15404 0.0974742 0.0966789 2.05502e-05 0.0970764 1.70809e-06 272.918 
-0.49 -0.13 0.0529352 1.44808 0.0973851 0.0972119 -0.000409796 0.0972691 1.71124e-06 272.958 
-0.47 -0.13 0.055295 1.62571 0.0974462 0.0971991 -0.000338917 0.0973043 1.71091e-06 273.108 
-0.45 -0.13 -0.21418 1.54868 0.0974739 0.0970986 -0.000197333 0.0972349 1.7111e-06 272.883 
-0.49 -0.11 0.0562023 1.27425 0.097593 0.0971641 -0.000392668 0.0974245 1.71439e-06 272.891 
-0.43 -0.13 -0.671251 2.16331 0.0974813 0.0968258 -0.000269214 0.0971544 1.7086e-06 273.056 
-0.47 -0.11 -0.0738816 1.80628 0.0975835 0.0971294 -0.00034305 0.09741 1.71281e-06 273.102 
-0.41 -0.13 -0.950267 2.48103 0.0975348 0.0969506 -0.000256482 0.0972313 1.71057e-06 272.958 
-0.45 -0.11 -0.427416 2.11401 0.0974998 0.0969927 -0.000241396 0.0972531 1.71012e-06 273.091 
-0.49 -0.09 -0.0796331 1.40768 0.0974285 0.0971409 -0.000406929 0.0972712 1.71146e-06 272.927 
-0.39 -0.13 -1.33149 2.55487 0.0976174 0.0968904 -0.000116158 0.0972894 1.71137e-06 272.993 
-0.43 -0.11 -0.78161 2.38053 0.0974517 0.0968522 -0.000264481 0.097226 1.70851e-06 273.273 
-0.47 -0.09 -0.297199 2.01806 0.0974233 0.0970116 -0.000355033 0.097219 1.7105e-06 272.935 
-0.41 -0.11 -0.987047 2.78986 0.0974226 0.0968419 -0.000276341 0.0971702 1.70839e-06 273.134 
-0.45 -0.09 -0.281067 2.2956 0.0974814 0.0969082 -0.000224542 0.0972618 1.71021e-06 273.101 
-0.39 -0.11 -1.27677 2.92921 0.0974373 0.0968082 -0.000121612 0.0971189 1.70817e-06 273.026 
-0.43 -0.09 -0.486907 2.71087 0.0975929 0.0969726 -0.000272305 0.0972406 1.70847e-06 273.32 
-0.41 -0.09 -0.897234 3.0969 0.0974575 0.0967358 -0.000215494 0.0970928 1.70758e-06 273.046 
-0.39 -0.09 -0.995926 2.96756 0.097506 0.0967455 -0.00020433 0.097109 1.70967e-06 272.758 
-0.37 -0.09 -1.23195 3.40492 0.0974889 0.096677 -0.000108391 0.0970902 1.70818e-06 272.943 
-0.35 -0.03 -1.9991 4.13498 0.0974037 0.0964728 -5.44931e-05 0.0969741 1.70529e-06 273.079 
-0.37 -0.07 -1.2946 3.39538 0.0974084 0.0965082 -8.18643e-05 0.0970419 1.70817e-06 272.809 
-0.41 -0.05 -0.851016 3.46712 0.097433 0.096677 -0.000272297 0.0970645 1.70698e-06 273.063 
-0.45 -0.03 -0.316557 3.21212 0.0973566 0.0966584 -0.00039005 0.0970362 1.70663e-06 273.039 
-0.35 -0.07 -1.48492 3.52865 0.0975556 0.0965434 -2.06653e-05 0.0970445 1.70767e-06 272.895 
-0.39 -0.05 -0.984171 3.52269 0.0974125 0.0966257 -0.000169296 0.0970867 1.70948e-06 272.725 
-0.43 -0.03 -0.679599 3.27059 0.0974259 0.0968075 -0.000257935 0.0971075 1.70808e-06 273.007 
-0.33 -0.07 -1.70846 3.69451 0.0976055 0.0966729 4.03695e-05 0.0970963 1.71002e-06 272.667 
-0.37 -0.05 -1.48353 3.78914 0.0974021 0.0964982 -0.000102101 0.0969484 1.70759e-06 272.638 
-0.41 -0.03 -1.13069 3.54548 0.0974272 0.0966874 -0.000152526 0.0970632 1.70668e-06 273.107 
-0.35 -0.05 -1.81598 3.85531 0.0973913 0.0964456 -7.18302e-05 0.0969087 1.70685e-06 272.645 
-0.39 -0.03 -1.49004 3.84566 0.0973064 0.0965182 -0.000120746 0.0969133 1.70722e-06 272.599 
-0.33 -0.05 -2.11556 4.06726 0.0974863 0.0965337 8.22388e-05 0.097038 1.70897e-06 272.671 
-0.37 -0.03 -1.57207 4.2131 0.0974275 0.0964225 -0.000113976 0.0969529 1.70748e-06 272.67 
-0.33 -0.03 -2.1591 4.21922 0.0973814 0.0964739 2.42842e-05 0.0969465 1.70654e-06 272.801 
-0.33 -0.01 -2.11925 4.25993 0.0973983 0.0963847 -5.34865e-05 0.0969056 1.70487e-06 272.954 
-0.49 -0.07 -0.109559 1.50432 0.0974033 0.0970849 -0.000419489 0.0972329 1.70996e-06 273.06 
-0.47 -0.07 -0.376734 2.26434 0.0974235 0.0968742 -0.00034251 0.0971624 1.70909e-06 273 
-0.45 -0.07 -0.564982 2.38583 0.097438 0.0968938 -0.000302958 0.0971491 1.71101e-06 272.656 
-0.49 -0.05 -0.113097 1.89968 0.0974088 0.0968701 -0.000505621 0.0971275 1.70788e-06 273.096 
-0.43 -0.07 -0.637676 2.9232 0.0974831 0.0968978 -0.000316717 0.097166 1.70876e-06 273.063 
-0.47 -0.05 -0.0493382 2.30683 0.0974729 0.0969554 -0.00041856 0.097194 1.71074e-06 272.826 
-0.41 -0.07 -0.808483 3.36279 0.0975759 0.0967176 -0.000197436 0.0970619 1.70818e-06 272.864 
-0.45 -0.05 -0.496485 2.62656 0.0974933 0.0967707 -0.000334769 0.0971737 1.7105e-06 272.808 
-0.49 -0.03 -0.0793929 1.91872 0.0973966 0.0968571 -0.000478857 0.0971267 1.70807e-06 273.063 
-0.39 -0.07 -1.08432 3.35124 0.0975332 0.0967402 -0.000211253 0.0971037 1.7082e-06 272.977 
-0.43 -0.05 -0.841818 3.03781 0.097496 0.0969532 -0.000247955 0.0972286 1.70995e-06 273.049 
-0.47 -0.03 -0.0847342 2.44118 0.0974094 0.096896 -0.000392141 0.0971075 1.70835e-06 272.965 
-0.27 -0.07 -2.81327 3.92543 0.0975913 0.0967768 0.000218192 0.0971968 1.70974e-06 272.994 
-0.31 -0.05 -2.3572 3.82644 0.0975381 0.0967462 8.20822e-05 0.0971064 1.71004e-06 272.692 
-0.27 -0.09 -2.44884 3.58219 0.0976506 0.0968681 0.000106293 0.0972953 1.70879e-06 273.422 
-0.31 -0.07 -1.90559 3.61524 0.0975364 0.0967237 9.39413e-05 0.0971771 1.71141e-06 272.672 
-0.29 -0.07 -2.38014 3.81579 0.0975628 0.0968549 0.000161759 0.097247 1.70912e-06 273.233 
-0.25 -0.07 -2.84243 3.45601 0.0975062 0.0970328 0.000159623 0.0972588 1.71015e-06 273.101 
-0.29 -0.05 -2.60277 4.17074 0.0975472 0.0967482 0.000113694 0.0970928 1.707e-06 273.14 
-0.27 -0.05 -2.48585 4.11059 0.0975138 0.0967481 0.000148036 0.0971543 1.70786e-06 273.174 
-0.31 -0.03 -2.44223 4.1586 0.0973782 0.0967808 1.3772e-05 0.097092 1.70997e-06 272.662 
-0.25 -0.05 -2.74355 3.60154 0.0974741 0.0968948 0.000264051 0.0971776 1.70952e-06 272.975 
-0.29 -0.03 -2.54888 4.21717 0.0974791 0.0966782 6.41025e-05 0.097066 1.7083e-06 272.856 
-0.27 -0.03 -2.86888 4.18373 0.0975011 0.0966559 0.000198773 0.0971945 1.7076e-06 273.328 
-0.31 -0.01 -2.3799 4.64608 0.0974677 0.0967947 -6.45936e-06 0.0971534 1.71014e-06 272.808 
-0.25 -0.03 -2.98015 3.99512 0.0975339 0.0968788 0.0002504 0.097222 1.71131e-06 272.814 
-0.29 -0.01 -2.76765 4.4918 0.0973582 0.0965791 0.000126339 0.0970525 1.70643e-06 273.117 
-0.27 -0.01 -2.92823 4.3271 0.097259 0.0966048 0.000137935 0.0970941 1.70828e-06 272.939 
-0.33 -0.25 -1.02662 1.35699 0.0977783 0.0970739 1.64325e-05 0.0974578 1.71428e-06 273.001 
-0.31 -0.25 -1.46716 1.56921 0.0978128 0.0971939 3.47612e-05 0.0975214 1.71494e-06 273.074 
-0.29 -0.25 -1.86657 1.85726 0.0977327 0.0970204 0.000187075 0.0973895 1.71204e-06 273.168 
-0.27 -0.25 -2.167 2.01806 0.0977432 0.097117 0.000178807 0.0974395 1.71392e-06 273.007 
-0.29 -0.11 -2.40473 3.32131 0.0976676 0.0968091 0.000108032 0.0972346 1.7106e-06 272.963 
-0.27 -0.11 -2.65682 3.16027 0.0976009 0.0969425 0.000223956 0.0972806 1.70859e-06 273.413 
-0.31 -0.09 -2.02134 3.30198 0.0976037 0.0968938 0.000115287 0.0973083 1.71169e-06 272.996 
-0.29 -0.09 -2.0251 3.53658 0.0975717 0.0967856 0.000118666 0.0972022 1.70896e-06 273.133 
-0.31 -0.23 -1.71304 1.97154 0.0975648 0.097143 9.91279e-05 0.0974145 1.71369e-06 272.975 
-0.29 -0.23 -1.97161 2.08407 0.0976796 0.096977 6.24648e-05 0.097358 1.71209e-06 273.071 
-0.27 -0.23 -1.94741 2.12223 0.097772 0.0971813 0.000136329 0.0974797 1.71264e-06 273.325 
-0.31 -0.21 -1.91117 2.10838 0.0977734 0.0971085 6.22402e-05 0.0973972 1.71276e-06 273.075 
-0.29 -0.21 -1.88265 2.13407 0.0976753 0.0969268 3.86726e-05 0.0973659 1.71247e-06 273.032 
-0.27 -0.21 -1.86071 2.33065 0.097674 0.0970966 8.80709e-05 0.0974159 1.71177e-06 273.285 
-0.31 -0.19 -1.56661 2.32881 0.0976721 0.097059 -6.62372e-08 0.0973062 1.71021e-06 273.226 
-0.25 -0.21 -2.18101 2.14365 0.0977741 0.097208 0.000208859 0.0974467 1.71157e-06 273.403 
-0.29 -0.19 -1.79501 2.19525 0.0976427 0.0969776 4.5219e-05 0.0973244 1.71229e-06 272.944 
-0.27 -0.19 -2.1139 2.41256 0.0975885 0.0970175 0.000142165 0.0973582 1.7114e-06 273.182 
-0.31 -0.17 -1.88843 2.47221 0.0976048 0.0969886 5.04084e-05 0.0973198 1.71125e-06 273.098 
-0.25 -0.19 -2.23104 2.46953 0.0975253 0.0970421 0.000196678 0.0973125 1.71315e-06 272.774 
-0.29 -0.17 -2.11998 2.44905 0.0975059 0.0968636 0.000161783 0.0972287 1.70914e-06 273.179 
-0.27 -0.17 -2.43646 2.78898 0.0975345 0.0970351 0.000162235 0.097321 1.71169e-06 273.031 
-0.31 -0.15 -1.97439 2.62246 0.0975551 0.096899 9.15261e-05 0.0972688 1.71208e-06 272.822 
-0.25 -0.17 -2.75887 2.49335 0.0974951 0.096959 0.000196448 0.0972006 1.71048e-06 272.885 
-0.29 -0.15 -2.22802 2.72071 0.0975633 0.0969619 0.000131708 0.0972954 1.71133e-06 273.017 
-0.27 -0.15 -2.37763 2.89391 0.0975427 0.0968972 0.000205153 0.0972268 1.71128e-06 272.832 
-0.31 -0.13 -2.08819 2.81304 0.0975505 0.0968578 0.000206689 0.0972853 1.71023e-06 273.164 
-0.25 -0.15 -2.62268 2.76767 0.0974485 0.096919 0.000226247 0.0971807 1.7089e-06 273.082 
-0.29 -0.13 -2.38347 3.12155 0.0975468 0.0968795 0.000181621 0.0972293 1.71008e-06 273.031 
-0.27 -0.13 -2.61821 2.87746 0.0975281 0.096867 0.000123342 0.097132 1.70829e-06 273.042 
-0.31 -0.11 -2.08886 3.05444 0.0975999 0.0968817 0.000157774 0.0972414 1.71054e-06 272.991 
-0.25 -0.13 -2.61695 2.9749 0.097653 0.096927 0.000222279 0.0972957 1.71155e-06 272.983 
-0.25 -0.23 -2.09963 1.96496 0.097687 0.0972687 0.000147437 0.0974228 1.71351e-06 273.026 
-0.25 -0.11 -2.86939 3.05813 0.0975838 0.0969245 0.000168043 0.0972115 1.70929e-06 273.106 
-0.25 -0.09 -2.88837 3.15826 0.0976956 0.0969447 0.000166253 0.0973827 1.71035e-06 273.418 
-0.25 -0.01 -3.20985 4.26341 0.0972991 0.0968279 0.000210819 0.0970558 1.70934e-06 272.661 
-0.23 -0.49 -0.452548 0.210763 0.0973258 0.0974648 0.000257361 0.0974845 1.71503e-06 272.956 
-0.21 -0.49 -0.683851 -0.0580987 0.0972978 0.0970663 0.000239077 0.0972992 1.7106e-06 273.143 
-0.19 -0.49 -0.767606 0.0624865 0.0973634 0.0973248 0.000223104 0.0973544 1.71215e-06 273.051 
-0.23 -0.47 -0.897982 0.0337959 0.0975148 0.0974432 0.000326593 0.0974483 1.71626e-06 272.659 
-0.17 -0.49 -0.656906 -0.231816 0.0973867 0.0974041 0.000245056 0.0974354 1.71351e-06 273.062 
-0.21 -0.47 -0.899196 0.124188 0.0974449 0.0971182 0.000269604 0.0973286 1.71102e-06 273.159 
-0.15 -0.49 -0.597149 0.0983244 0.0974392 0.097538 0.000257514 0.0975414 1.71527e-06 273.078 
-0.19 -0.47 -0.941398 0.0467601 0.0975414 0.0973317 0.000186543 0.0973536 1.71328e-06 272.869 