ITEM: TIMESTEP
802000
ITEM: NUMBER OF CELLS
2500
ITEM: BOX BOUNDS ss ss pp
-0.5 0.5
-0.5 0.5
-0.5 0.5
ITEM: CELLS xc yc f_U[*] f_V[*] f_Tau[1] f_Tau[2] f_Tau[3] f_Press[*] f_Mrho[*] f_Ttra[*] 
-0.49 -0.49 -1.15319 -0.443624 0.0972163 0.0972044 0.000504918 0.0972787 1.70364e-06 274.203 
-0.47 -0.49 0.0672183 0.0169975 0.0972628 0.0967148 0.000160969 0.0969251 1.70783e-06 272.535 
-0.45 -0.49 1.6476 1.25454 0.0974706 0.0978896 -0.000342274 0.0977408 1.71598e-06 273.524 
-0.49 -0.47 -0.193951 -0.752469 0.0955803 0.0967826 0.000131091 0.0963298 1.6964e-06 272.687 
-0.43 -0.49 0.799911 -0.177348 0.097788 0.0972149 0.000187627 0.0973024 1.71754e-06 272.049 
-0.47 -0.47 0.499782 -0.399812 0.0965305 0.0971607 0.000422058 0.0973619 1.71961e-06 271.888 
-0.41 -0.49 -0.152477 0.554824 0.0970344 0.0979601 0.000203827 0.0977349 1.72484e-06 272.101 
-0.45 -0.47 -1.44144 1.3005 0.0960241 0.0974697 0.000336181 0.0970895 1.70638e-06 273.228 
-0.49 -0.45 -1.36868 -0.938422 0.0972862 0.0975526 -0.000181781 0.097574 1.71014e-06 273.988 
-0.39 -0.49 -0.918566 -0.998505 0.0961328 0.0961016 0.000234192 0.0962847 1.70677e-06 270.903 
-0.43 -0.47 -1.0687 0.150095 0.0966774 0.0973744 -0.00026325 0.0970943 1.71243e-06 272.277 
-0.47 -0.45 -2.50119 -0.686323 0.0967573 0.0980389 0.000104741 0.0974761 1.71838e-06 272.401 
-0.37 -0.49 -2.87108 0.4136 0.0966534 0.0961918 -0.000103344 0.0965305 1.71583e-06 270.16 
-0.41 -0.47 -0.654174 1.79824 0.0973386 0.0971484 0.00106814 0.0969519 1.70353e-06 273.298 
-0.45 -0.45 -0.879592 1.15302 0.0964028 0.0973022 0.000139809 0.0966116 1.6996e-06 272.969 
-0.49 -0.43 -0.86487 0.341829 0.0979654 0.0969455 0.000318808 0.0979099 1.7231e-06 272.864 
-0.35 -0.49 -1.92062 -0.655104 0.0962583 0.0963239 -0.000151547 0.0966003 1.71319e-06 270.771 
-0.39 -0.47 -1.50429 -1.62112 0.0975757 0.097876 0.000927513 0.0977465 1.72239e-06 272.521 
-0.43 -0.45 -0.87145 0.540482 0.0969737 0.096357 -0.000218316 0.0968981 1.70401e-06 273.07 
-0.47 -0.43 -0.297279 -0.0449737 0.0974744 0.0977249 0.000303827 0.0973566 1.7126e-06 272.986 
-0.37 -0.47 -1.24271 0.882448 0.0974798 0.0972787 -0.000477835 0.0974492 1.71097e-06 273.505 
-0.41 -0.45 0.172184 0.631557 0.0971546 0.0967576 7.82113e-05 0.0974997 1.71686e-06 272.708 
-0.45 -0.43 -1.12284 -0.233166 0.0978784 0.0977503 0.000369017 0.0981972 1.71718e-06 274.608 
-0.49 -0.41 -0.688067 1.88133 0.0962264 0.0965134 -8.54448e-05 0.096411 1.70943e-06 270.835 
-0.35 -0.47 0.239429 -1.29641 0.0985331 0.0971719 -0.000614801 0.0978675 1.7242e-06 272.573 
-0.39 -0.45 -0.327209 0.209972 0.0985434 0.0979421 0.000771412 0.0980667 1.72367e-06 273.211 
-0.43 -0.43 -2.43197 -1.05786 0.097264 0.0959437 -0.00055753 0.0968819 1.7054e-06 272.802 
-0.47 -0.41 -1.9373 -1.42526 0.0975977 0.0976572 0.000310096 0.097422 1.70914e-06 273.721 
-0.37 -0.45 0.401001 -0.294222 0.0988798 0.0978633 0.000549147 0.098668 1.73675e-06 272.815 
-0.41 -0.43 -1.00241 -0.132784 0.0974943 0.09681 -4.2142e-05 0.0977205 1.71381e-06 273.812 
-0.45 -0.41 -0.715643 0.882076 0.0975217 0.0984088 9.59763e-05 0.0975352 1.71332e-06 273.371 
-0.49 -0.39 0.728699 0.63422 0.0988762 0.0980818 0.000517609 0.0979477 1.71661e-06 274.001 
-0.35 -0.45 0.393334 -0.125181 0.0975424 0.0967799 4.13223e-05 0.0973913 1.71641e-06 272.477 
-0.39 -0.43 0.946853 -0.414544 0.0980878 0.0975776 0.000519171 0.0980025 1.71128e-06 275.009 
-0.43 -0.41 -0.409439 -2.62711 0.0974339 0.0974213 -0.000131011 0.0974913 1.71677e-06 272.699 
-0.47 -0.39 -1.36767 -0.426028 0.0983573 0.0974881 -0.000681358 0.0978614 1.72233e-06 272.851 
-0.33 -0.45 1.11568 0.449784 0.0974171 0.0968461 -0.000343003 0.097195 1.71867e-06 271.569 
-0.37 -0.43 -0.911515 -0.804332 0.0983821 0.0982086 0.000521324 0.0980038 1.71279e-06 274.769 
-0.41 -0.41 -1.17468 -1.06036 0.0975408 0.0967923 0.000114961 0.0975647 1.72231e-06 272.027 
-0.45 -0.39 -0.695941 -0.543007 0.0994808 0.0986126 -0.00034686 0.098204 1.72062e-06 274.078 
-0.35 -0.43 -0.146362 -0.660391 0.0987187 0.0969965 0.000209038 0.0977324 1.71267e-06 274.028 
-0.39 -0.41 -1.30938 -0.354316 0.0984855 0.0978103 -0.000211899 0.0981271 1.73519e-06 271.563 
-0.43 -0.39 0.800582 1.58858 0.098986 0.0978522 0.000213269 0.0984443 1.72117e-06 274.661 
-0.37 -0.41 -0.755317 0.822095 0.0978153 0.0978329 -2.84941e-05 0.0978215 1.72309e-06 272.62 
-0.41 -0.39 -1.02144 -0.777443 0.0991571 0.0976157 -0.000584448 0.0982828 1.73005e-06 272.803 
-0.35 -0.41 -1.07137 -1.69104 0.0967796 0.0973539 -9.17217e-05 0.0969204 1.71094e-06 272.027 
-0.39 -0.39 -1.6443 0.685889 0.0976593 0.0974553 -0.000506512 0.0971679 1.71837e-06 271.542 
-0.33 -0.41 -2.12391 0.70135 0.0968589 0.0968079 2.64077e-05 0.0963334 1.69716e-06 272.573 
-0.37 -0.39 -2.54488 -0.119872 0.0973864 0.0977 0.000322724 0.0980145 1.72243e-06 273.261 
-0.35 -0.39 -0.750532 0.111307 0.096872 0.0969414 -0.000145014 0.097053 1.71013e-06 272.527 
-0.33 -0.39 -1.29822 -1.23662 0.0966233 0.0974672 -2.14272e-06 0.0970521 1.70506e-06 273.336 
-0.37 -0.37 -0.32772 -0.708523 0.0983901 0.0971566 -0.000130386 0.0978121 1.70556e-06 275.395 
-0.49 -0.37 -0.976826 0.0737135 0.0977763 0.0983137 0.000371853 0.0981231 1.72658e-06 272.907 
-0.47 -0.37 -0.335629 -1.73534 0.0976426 0.0975803 0.000746454 0.097492 1.71852e-06 272.423 
-0.45 -0.37 -0.823175 -1.29587 0.0975174 0.0969979 -0.000330122 0.0971437 1.702e-06 274.085 
-0.49 -0.35 -0.223783 -1.08893 0.0976924 0.0988857 -0.000471478 0.0988507 1.71912e-06 276.124 
-0.43 -0.37 -0.0709896 1.854 0.097949 0.0971447 3.79167e-05 0.097609 1.71291e-06 273.644 
-0.47 -0.35 -0.576071 0.129289 0.0973074 0.097741 -4.15845e-05 0.097987 1.71606e-06 274.2 
-0.45 -0.35 -2.22513 0.795499 0.0975337 0.0982117 -4.31047e-05 0.0978592 1.71539e-06 273.949 
-0.49 -0.33 -0.154128 0.862438 0.097933 0.0974552 1.2727e-06 0.0976135 1.72571e-06 271.626 
-0.39 -0.37 -0.399879 2.43877 0.0975773 0.0974506 7.15684e-05 0.0974342 1.71436e-06 272.923 
-0.43 -0.35 -0.176429 0.271235 0.0975404 0.0975261 -0.000334175 0.0981017 1.72223e-06 273.536 
-0.47 -0.33 -1.02959 0.211215 0.0984423 0.0976914 -3.41169e-05 0.0976592 1.71642e-06 273.225 
-0.41 -0.35 -0.449619 0.915605 0.0983211 0.0973591 -0.000382551 0.0977984 1.7113e-06 274.432 
-0.45 -0.33 -1.12854 0.0336905 0.098107 0.097832 5.29332e-05 0.0979699 1.7197e-06 273.57 
-0.49 -0.31 -0.216182 1.61727 0.0977391 0.0965703 0.000184533 0.097197 1.70677e-06 273.469 
-0.39 -0.35 -0.368604 2.43851 0.0971926 0.0966881 -0.000364941 0.0970515 1.6973e-06 274.583 
-0.43 -0.33 -1.58299 0.469967 0.0970964 0.0975244 0.000147447 0.0976564 1.71254e-06 273.835 
-0.47 -0.31 0.213987 0.397417 0.097413 0.0954458 -0.00034217 0.0965906 1.69199e-06 274.137 
-0.37 -0.35 1.90201 -1.61852 0.0961433 0.0960232 0.000100017 0.0966355 1.69289e-06 274.119 
-0.41 -0.33 -1.33426 2.66011 0.0967429 0.097723 0.000224226 0.0976833 1.70373e-06 275.328 
-0.45 -0.31 1.28962 -0.340825 0.0979128 0.0977487 0.000750832 0.0975786 1.70857e-06 274.254 
-0.49 -0.29 0.135398 1.55909 0.0970953 0.0975778 -0.000180082 0.0973037 1.71496e-06 272.461 
-0.35 -0.35 -0.298062 2.16361 0.0979008 0.0974908 0.000373006 0.097904 1.72503e-06 272.543 
-0.39 -0.33 -0.304428 1.32553 0.0963208 0.097149 0.000224669 0.0972341 1.71345e-06 272.507 
-0.43 -0.31 -1.22674 1.02285 0.0973991 0.0979784 0.000718289 0.0980073 1.70916e-06 275.364 
-0.47 -0.29 0.830865 0.444934 0.0975149 0.0951211 -0.000179595 0.0965149 1.70462e-06 271.893 
-0.37 -0.33 1.10018 0.170026 0.0961613 0.0963931 -0.000110896 0.0961233 1.71036e-06 269.881 
-0.41 -0.31 -0.654208 0.196774 0.0978047 0.0970975 2.60226e-05 0.0974148 1.70901e-06 273.723 
-0.45 -0.29 -0.420164 0.796754 0.09737 0.0966036 -0.00017064 0.0969668 1.69905e-06 274.062 
-0.49 -0.27 0.695693 1.88445 0.0974419 0.0971328 -0.000192733 0.096699 1.69381e-06 274.15 
-0.35 -0.33 -0.202025 1.15213 0.0974548 0.0982688 -0.000297803 0.0980415 1.71601e-06 274.36 
-0.39 -0.31 0.575926 0.296955 0.0978664 0.0980293 0.000343623 0.0980954 1.72125e-06 273.676 
-0.43 -0.29 -2.03278 0.559713 0.0984064 0.0987757 0.000162249 0.0988084 1.7298e-06 274.301 
-0.47 -0.27 0.229779 1.54687 0.0973597 0.0954335 -0.000357052 0.0964557 1.69598e-06 273.109 
-0.33 -0.33 -0.494122 0.835627 0.098354 0.0992758 4.08388e-05 0.0990367 1.73936e-06 273.424 
-0.37 -0.31 0.294834 0.865038 0.0976336 0.0968529 -0.000190466 0.0970836 1.70515e-06 273.409 
-0.41 -0.29 -2.12455 -0.501533 0.0984417 0.0977867 -0.000242675 0.0984821 1.73411e-06 272.717 
-0.45 -0.27 -0.485265 0.00415161 0.0966709 0.0962399 -0.000620651 0.0968027 1.69959e-06 273.51 
-0.35 -0.31 -0.522791 1.87827 0.0974568 0.098065 -0.000134179 0.0974903 1.7034e-06 274.836 
-0.39 -0.29 -1.79972 0.715095 0.0988006 0.0978371 -0.000296496 0.0984175 1.72834e-06 273.447 
-0.43 -0.27 -0.703372 2.73456 0.0970653 0.0976287 -0.000207826 0.0977034 1.72072e-06 272.665 
-0.37 -0.29 -0.344676 0.851489 0.0983067 0.096889 7.19346e-05 0.0977819 1.71613e-06 273.614 
-0.41 -0.27 -3.39321 0.353002 0.0977852 0.0979256 -0.000177078 0.0980502 1.71521e-06 274.512 
-0.35 -0.29 -0.214406 1.38478 0.0982724 0.0979009 -0.000134023 0.0975777 1.70677e-06 274.54 
-0.39 -0.27 -0.995821 -0.419226 0.0978755 0.0975536 -0.000757534 0.0978648 1.72607e-06 272.27 
-0.33 -0.29 0.57341 2.32624 0.0984745 0.0978864 0.000521922 0.0982031 1.73346e-06 272.046 
-0.37 -0.27 -0.0807143 1.71721 0.098344 0.0964104 -0.000663377 0.0975703 1.70613e-06 274.623 
-0.35 -0.27 -1.18905 2.12383 0.0988446 0.0967199 -0.000144847 0.0972954 1.70474e-06 274.072 
-0.41 -0.37 1.70414 -1.36395 0.0974135 0.0971779 -0.00029307 0.0973444 1.71974e-06 271.818 
-0.35 -0.37 1.13159 0.926701 0.0977668 0.0968443 -0.00037823 0.0968982 1.71334e-06 271.583 
-0.45 -0.25 0.340144 1.3576 0.0976167 0.0956227 -6.82804e-05 0.0964841 1.70237e-06 272.164 
-0.37 -0.25 -1.66111 -0.153273 0.0979379 0.0971099 -0.000551452 0.0974306 1.71473e-06 272.853 
-0.35 -0.25 -1.38627 3.16208 0.0975372 0.0971716 -0.000239607 0.0977351 1.71814e-06 273.163 
-0.33 -0.49 -1.59145 -0.195891 0.0974965 0.0985511 -0.00064157 0.0988036 1.73238e-06 273.88 
-0.31 -0.49 -1.34868 -0.180434 0.0974032 0.0980126 0.00022729 0.097646 1.7073e-06 274.647 
-0.29 -0.49 -0.149927 -1.036 0.0967936 0.0966237 -0.000354213 0.0972814 1.71669e-06 272.125 
-0.33 -0.47 -0.870974 -1.32881 0.0978951 0.0965587 -0.000497115 0.0971054 1.7109e-06 272.551 
-0.27 -0.49 -0.578758 0.122423 0.0974149 0.0992369 2.17601e-05 0.0984272 1.74168e-06 271.38 
-0.31 -0.47 1.07148 -1.37196 0.0973484 0.0966262 0.000440351 0.0971817 1.70737e-06 273.329 
-0.29 -0.47 0.268489 -1.14263 0.0981617 0.0967246 0.000283128 0.0976129 1.72177e-06 272.247 
-0.27 -0.47 -1.26295 -1.07311 0.0983147 0.0977318 -3.45098e-05 0.0983212 1.72667e-06 273.444 
-0.31 -0.45 -0.190726 -1.30546 0.0982869 0.0970595 -0.000758793 0.0976898 1.73041e-06 271.101 
-0.29 -0.45 0.631397 0.612523 0.0983104 0.0968833 -0.000101383 0.0974138 1.70719e-06 274.011 
-0.33 -0.43 0.512715 0.208803 0.0983822 0.0974276 -7.78171e-05 0.0973108 1.70657e-06 273.822 
-0.27 -0.45 0.404465 -0.102197 0.0980827 0.0976029 0.000282543 0.0975501 1.71438e-06 273.245 
-0.31 -0.43 -0.47673 -1.6319 0.0977311 0.0970546 -0.000325543 0.0974582 1.72337e-06 271.563 
-0.29 -0.43 -1.42172 -0.387235 0.0971522 0.0965351 6.10084e-05 0.0965692 1.68841e-06 274.657 
-0.27 -0.43 -0.328966 -0.903516 0.0971437 0.0966549 0.000203326 0.0969697 1.70265e-06 273.489 
-0.31 -0.41 -1.08802 0.209208 0.0973897 0.0975125 0.000215632 0.0971611 1.72129e-06 271.062 
-0.29 -0.41 -1.91099 -0.532535 0.0969735 0.0975054 0.000221931 0.0966468 1.69452e-06 273.887 
-0.27 -0.41 -1.70835 -1.81911 0.0968568 0.0960282 0.00017428 0.0962022 1.69745e-06 272.157 
-0.31 -0.39 -0.560958 -0.501404 0.0965762 0.0965219 -6.74381e-05 0.0960702 1.69353e-06 272.413 
-0.29 -0.39 0.340453 -0.0140961 0.0965129 0.0974158 7.08914e-06 0.0967339 1.70727e-06 272.087 
-0.33 -0.37 -0.193022 1.15817 0.0975323 0.0976819 -0.00012388 0.0979339 1.71954e-06 273.496 
-0.27 -0.39 -0.711659 0.0875336 0.0958812 0.0971444 0.000143971 0.0963736 1.6931e-06 273.342 
-0.31 -0.37 -0.965505 -1.51012 0.0966387 0.0968986 -0.000650659 0.0969224 1.7097e-06 272.229 
-0.29 -0.37 -1.18986 -0.826141 0.0975241 0.0976251 -0.000540046 0.0971726 1.70951e-06 272.962 
-0.33 -0.35 0.750007 1.80336 0.0981225 0.098478 -0.000447943 0.098729 1.73914e-06 272.609 
-0.27 -0.37 -0.470033 0.28036 0.0976377 0.0979558 -1.41701e-05 0.0975228 1.71887e-06 272.454 
-0.31 -0.35 -1.47214 1.69076 0.0977123 0.0967051 -0.000203055 0.0971797 1.70986e-06 272.926 
-0.29 -0.35 -0.87733 -0.485674 0.0971914 0.0971494 -0.00050042 0.0969222 1.71541e-06 271.322 
-0.27 -0.35 0.573051 2.65227 0.0960581 0.0971632 0.000279701 0.096619 1.71453e-06 270.612 
-0.31 -0.33 -0.506181 1.72462 0.0973394 0.096456 -4.64738e-05 0.0968465 1.71001e-06 271.966 
-0.29 -0.33 -0.955831 1.10048 0.0968109 0.0967776 0.00026314 0.0972368 1.70662e-06 273.605 
-0.33 -0.31 -0.493626 0.100571 0.0975825 0.0982157 0.000472711 0.0977163 1.71645e-06 273.379 
-0.27 -0.33 -0.695121 1.82675 0.0962478 0.0967179 -0.000147239 0.0966561 1.70581e-06 272.101 
-0.31 -0.31 -0.907818 1.2807 0.097007 0.0973404 0.000438079 0.097658 1.7109e-06 274.103 
-0.29 -0.31 0.314192 1.13348 0.0975188 0.097288 0.000357928 0.0977673 1.71492e-06 273.767 
-0.27 -0.31 -1.80427 1.82033 0.0990834 0.0976661 -0.00012665 0.0982614 1.71764e-06 274.714 
-0.31 -0.29 0.733591 0.433749 0.0982538 0.0978793 0.000834168 0.0980034 1.72487e-06 272.844 
-0.29 -0.29 -1.28504 2.31446 0.0972151 0.0975887 -0.000570488 0.0973256 1.7102e-06 273.282 
-0.27 -0.29 -1.39607 3.17542 0.0971965 0.0971133 0.000414063 0.0972423 1.70281e-06 274.232 
-0.31 -0.27 -1.70421 1.58558 0.0974351 0.0974655 0.000449366 0.0975388 1.71067e-06 273.805 
-0.25 -0.29 -3.24269 0.969828 0.0960461 0.0967968 -0.000325841 0.0962239 1.68762e-06 273.803 
-0.29 -0.27 -1.81417 2.05899 0.0965937 0.0980648 8.9461e-05 0.0970678 1.715e-06 271.794 
-0.27 -0.27 -0.659013 2.33003 0.0968665 0.0975957 -0.000121945 0.0971083 1.71952e-06 271.194 
-0.25 -0.27 -0.487946 0.455481 0.0976634 0.0967991 0.00042182 0.0973477 1.70457e-06 274.247 
-0.33 -0.27 -1.3623 1.16744 0.0981913 0.0975267 0.000926312 0.0972365 1.71574e-06 272.15 
-0.25 -0.49 0.281605 -0.876471 0.0976036 0.0973171 -0.00010631 0.097259 1.70843e-06 273.378 
-0.25 -0.47 -1.61288 -1.20733 0.0983504 0.0973734 0.00119424 0.0977184 1.7211e-06 272.648 
-0.25 -0.45 -0.650186 -0.454293 0.0972065 0.0973679 0.000803138 0.097189 1.70411e-06 273.873 
-0.25 -0.37 -1.09766 -0.0933839 0.0980363 0.0972499 -0.000199616 0.0974717 1.69754e-06 275.733 
-0.25 -0.35 -0.345561 0.288861 0.0969785 0.0977945 4.01903e-05 0.0972626 1.71751e-06 271.943 
-0.25 -0.33 -1.34967 1.17624 0.097349 0.0977969 -0.000171002 0.0975337 1.71555e-06 273.011 
-0.25 -0.25 -4.16981 1.88787 0.0974019 0.0973272 7.92367e-05 0.0976437 1.71582e-06 273.277 
-0.49 -0.25 0.880444 -0.121938 0.0969748 0.0972235 0.000135346 0.0974731 1.70702e-06 274.206 
-0.47 -0.25 0.364093 3.24387 0.0964732 0.0955161 0.000237825 0.0961513 1.69401e-06 272.565 
-0.49 -0.23 -1.00432 0.668331 0.0966644 0.0970776 0.000104553 0.0966126 1.70112e-06 272.728 
-0.47 -0.23 -0.671861 3.22697 0.0959628 0.0963106 -0.000209171 0.0964443 1.69791e-06 272.767 
-0.45 -0.23 0.449908 1.23556 0.0968263 0.0947203 -0.000139946 0.0959847 1.68351e-06 273.789 
-0.49 -0.21 -0.350556 1.66869 0.0973166 0.0973241 0.000661019 0.0976466 1.71478e-06 273.451 
-0.43 -0.23 0.125635 1.26139 0.0977928 0.0975824 0.000590288 0.0978598 1.71264e-06 274.389 
-0.47 -0.21 0.177984 2.35187 0.0976555 0.0976478 0.000127634 0.0980783 1.73074e-06 272.127 
-0.41 -0.23 -1.23806 -1.16584 0.0979607 0.0959592 -2.45154e-05 0.0971113 1.71052e-06 272.629 
-0.45 -0.21 0.291264 1.2207 0.0979656 0.0962591 -0.00104727 0.0972498 1.70742e-06 273.513 
-0.49 -0.19 -0.88927 1.2793 0.0981138 0.0976213 -0.000720747 0.09719 1.69603e-06 275.181 
-0.39 -0.23 -0.915739 0.937031 0.0976128 0.0972569 0.000305632 0.0973488 1.71272e-06 272.945 
-0.43 -0.21 -0.958824 2.73628 0.0983748 0.0969463 5.18157e-06 0.0975479 1.71087e-06 273.798 
-0.47 -0.19 -2.14182 -0.398271 0.0984109 0.0981444 -6.14767e-05 0.097925 1.72507e-06 272.595 
-0.41 -0.21 -2.4213 1.30927 0.0976124 0.0955563 0.000455828 0.0967946 1.70811e-06 272.123 
-0.45 -0.19 -3.20388 2.02165 0.0978128 0.097048 -0.000518132 0.0976354 1.70916e-06 274.318 
-0.49 -0.17 -0.536616 0.833154 0.0963894 0.0964926 -0.000170567 0.0964323 1.70183e-06 272.106 
-0.39 -0.21 -2.90363 1.60297 0.0980352 0.0967172 -0.000168415 0.0977087 1.71018e-06 274.361 
-0.43 -0.19 -2.90953 2.03201 0.0978937 0.0965205 2.70589e-05 0.0976394 1.70963e-06 274.254 
-0.47 -0.17 -1.51625 -0.0107487 0.0966055 0.0975685 -0.000507983 0.0967272 1.70698e-06 272.114 
-0.41 -0.19 -2.90795 -0.0292455 0.0986947 0.0964462 -0.000131247 0.0976669 1.71815e-06 272.971 
-0.45 -0.17 -1.76445 0.0236835 0.0973427 0.0975771 -3.2088e-05 0.0969615 1.72022e-06 270.674 
-0.49 -0.15 -0.478124 0.612888 0.0989831 0.0965329 -0.00054137 0.0975746 1.72681e-06 271.346 
-0.39 -0.19 -1.47578 1.28703 0.0979329 0.096807 -0.000675469 0.0976271 1.72602e-06 271.616 
-0.43 -0.17 -0.783532 0.860593 0.0970616 0.0964375 -0.000171732 0.0963953 1.69522e-06 273.062 
-0.47 -0.15 0.269884 1.43353 0.0986104 0.0974907 -0.000221609 0.0976907 1.72924e-06 271.287 
-0.41 -0.17 0.191305 0.368921 0.0978227 0.0971039 0.000352693 0.097968 1.7272e-06 272.377 
-0.45 -0.15 -0.113574 -1.19458 0.0974317 0.0972867 -0.000271136 0.0970452 1.70818e-06 272.816 
-0.39 -0.17 -1.83394 0.555273 0.0982773 0.0967085 0.000242682 0.0974877 1.72284e-06 271.729 
-0.43 -0.15 -0.68648 -1.59248 0.0973371 0.0964333 0.00056571 0.0969761 1.70727e-06 272.767 
-0.41 -0.15 -2.02501 0.887635 0.0968238 0.0968153 -0.000702544 0.0968846 1.70277e-06 273.23 
-0.39 -0.15 -1.67773 1.48212 0.0973267 0.0954848 1.67398e-06 0.096162 1.6989e-06 271.811 
-0.43 -0.25 -0.0344094 1.29736 0.0976899 0.0972275 -0.000156145 0.0980011 1.72169e-06 273.341 
-0.41 -0.25 1.21636 0.330623 0.0968103 0.09627 -0.000511141 0.0965151 1.69838e-06 272.892 
-0.39 -0.25 -0.380843 -0.0848003 0.0979143 0.0973198 -0.000374401 0.0976059 1.71317e-06 273.594 
-0.37 -0.23 1.03685 1.69418 0.0971031 0.0972162 5.97698e-06 0.0972944 1.72587e-06 270.713 
-0.35 -0.23 -0.190112 4.45742 0.0974341 0.0974214 0.000356773 0.0981011 1.73249e-06 271.916 
-0.33 -0.23 -1.67295 1.23377 0.0980408 0.0967937 0.000205943 0.0978709 1.72131e-06 273.038 
-0.37 -0.21 -2.81856 0.0540134 0.0977176 0.0971825 6.41434e-05 0.0976465 1.7121e-06 273.878 
-0.35 -0.21 -2.3938 5.06313 0.0969248 0.0964575 -0.000185633 0.0966643 1.69606e-06 273.688 
-0.33 -0.21 -0.0812489 0.73527 0.0975898 0.0973492 -7.15381e-05 0.0971085 1.70908e-06 272.851 
-0.37 -0.19 -1.9016 0.784176 0.0971373 0.0964902 -0.000160744 0.0971802 1.70907e-06 273.054 
-0.35 -0.19 -1.84681 3.73039 0.0965553 0.0968365 0.000180556 0.0967004 1.70423e-06 272.478 
-0.33 -0.19 -1.40645 3.21206 0.0965804 0.0971702 0.00063668 0.0972104 1.70831e-06 273.261 
-0.37 -0.17 -0.673038 3.4294 0.0984018 0.0962833 -0.00027995 0.0972674 1.71348e-06 272.595 
-0.35 -0.17 -1.87106 2.12111 0.0980551 0.0966504 -0.000361451 0.0974296 1.71348e-06 273.05 
-0.33 -0.17 -1.28907 4.3209 0.0974358 0.0974624 -7.91716e-05 0.0975682 1.71436e-06 273.298 
-0.37 -0.15 -1.16985 1.28374 0.09767 0.0972972 0.000638103 0.0975144 1.71818e-06 272.541 
-0.35 -0.15 -2.45195 2.37889 0.0980132 0.0970722 -0.000756066 0.0978356 1.71606e-06 273.776 
-0.33 -0.15 -2.31178 2.73092 0.0969574 0.0972849 -0.000620584 0.0975578 1.71396e-06 273.332 
-0.35 -0.13 -1.20813 3.01536 0.0977174 0.0966881 -0.000444515 0.0970625 1.7105e-06 272.495 
-0.33 -0.13 -2.86252 2.85685 0.0974975 0.097021 0.000434703 0.0972959 1.71738e-06 272.056 
-0.33 -0.09 -2.02382 4.65721 0.0978293 0.0966936 0.000195679 0.097689 1.72491e-06 271.963 
-0.37 -0.13 -2.22235 3.09348 0.0980207 0.0978936 -0.000275577 0.0978994 1.71776e-06 273.683 
-0.37 -0.11 -2.02812 2.00027 0.0972267 0.0966769 6.80299e-05 0.097194 1.70679e-06 273.457 
-0.35 -0.11 -0.596174 2.58967 0.0982039 0.097148 0.00028859 0.0979798 1.71918e-06 273.681 
-0.33 -0.11 -0.0715275 4.67717 0.0984467 0.0974221 -0.000140222 0.0979298 1.71874e-06 273.613 
-0.35 -0.09 -1.21688 2.62356 0.097231 0.0970061 -6.40591e-05 0.0972163 1.71388e-06 272.388 
-0.49 -0.13 0.098441 -0.249884 0.0977048 0.096831 -3.17804e-05 0.0969463 1.704e-06 273.207 
-0.47 -0.13 -0.346665 1.13806 0.0977056 0.0962589 -2.45004e-05 0.0971771 1.70903e-06 273.052 
-0.45 -0.13 -1.93902 0.045394 0.0972677 0.0963451 -0.000366155 0.0965642 1.7033e-06 272.242 
-0.49 -0.11 -0.401176 -0.383764 0.0972828 0.0973866 0.000627273 0.0973529 1.71502e-06 272.591 
-0.43 -0.13 -3.86645 0.91658 0.0975442 0.0964565 -0.000420131 0.0967332 1.70605e-06 272.28 
-0.47 -0.11 0.222304 1.83782 0.0970442 0.0963971 -0.000180359 0.0964787 1.6899e-06 274.157 
-0.41 -0.13 -1.09086 2.58639 0.09892 0.0977876 -0.000220517 0.0985011 1.72646e-06 273.978 
-0.45 -0.11 -0.399884 2.5829 0.0967179 0.0959663 -0.000292184 0.0962445 1.69401e-06 272.829 
-0.49 -0.09 -0.424617 1.08456 0.0976183 0.096828 -0.000270474 0.0973557 1.71333e-06 272.867 
-0.39 -0.13 -0.842491 1.53941 0.0977304 0.0959518 -0.000360255 0.0970121 1.70658e-06 272.979 
-0.43 -0.11 -0.963823 1.9781 0.0967673 0.0966286 -0.000958506 0.0966797 1.7104e-06 271.436 
-0.47 -0.09 -1.42537 1.30972 0.098372 0.0971018 -0.000218919 0.0974932 1.70789e-06 274.122 
-0.41 -0.11 -2.69774 3.37046 0.0965721 0.0975263 -0.000492055 0.0970827 1.69919e-06 274.366 
-0.45 -0.09 -1.83315 1.77597 0.0982714 0.0970553 -0.000644598 0.0977317 1.71988e-06 272.878 
-0.39 -0.11 -2.93525 3.44674 0.0962357 0.0964198 0.000315642 0.0971459 1.70383e-06 273.797 
-0.43 -0.09 -2.28246 4.11846 0.0979956 0.0966497 -0.00104156 0.0973247 1.71071e-06 273.198 
-0.41 -0.09 -1.82986 3.4321 0.0978891 0.0973928 -3.53907e-05 0.09819 1.71422e-06 275.062 
-0.39 -0.09 -1.72362 3.04331 0.0973041 0.0961114 -0.000267344 0.0971194 1.71976e-06 271.186 
-0.37 -0.09 -1.77251 2.52846 0.0961837 0.0971082 -0.000221896 0.0970844 1.7068e-06 273.147 
-0.35 -0.03 -2.16438 4.1188 0.0985732 0.0958191 0.000261087 0.0971187 1.70537e-06 273.473 
-0.37 -0.07 -2.59747 3.14315 0.0974813 0.096317 -0.000169416 0.0965435 1.69574e-06 273.397 
-0.41 -0.05 -0.744997 3.65168 0.0976 0.0960256 -0.000135471 0.0967342 1.69756e-06 273.644 
-0.45 -0.03 1.22469 3.12828 0.0962684 0.0960658 -0.000562977 0.0964363 1.71747e-06 269.638 
-0.35 -0.07 -1.50421 2.46462 0.0972935 0.095536 -0.000188445 0.0962646 1.69608e-06 272.553 
-0.39 -0.05 -0.186856 5.31418 0.0974167 0.0965535 -0.000305054 0.0967054 1.70345e-06 272.617 
-0.43 -0.03 0.974927 3.19521 0.0970316 0.0965688 -0.00100657 0.0970736 1.70938e-06 272.705 
-0.33 -0.07 -0.799084 4.94992 0.0972223 0.0967855 0.000137605 0.0970858 1.71298e-06 272.167 
-0.37 -0.05 -0.247729 4.06807 0.0968499 0.0965774 -0.00043214 0.0964136 1.68792e-06 274.294 
-0.41 -0.03 -0.619284 4.61405 0.0966558 0.0965392 3.8375e-05 0.0966848 1.70728e-06 271.946 
-0.35 -0.05 -3.16256 3.87022 0.0965148 0.0953545 -0.000156129 0.0960515 1.68256e-06 274.134 
-0.39 -0.03 0.416558 2.87478 0.0970493 0.0960121 -0.000610617 0.0964927 1.7082e-06 271.261 
-0.33 -0.05 -1.36636 3.56675 0.0969285 0.0968219 0.000278665 0.0969169 1.7044e-06 273.06 
-0.37 -0.03 -0.0472822 3.66503 0.0983306 0.0964924 7.45152e-05 0.097097 1.70808e-06 272.979 
-0.33 -0.03 -1.0759 4.93502 0.0982537 0.0963275 0.000175113 0.097016 1.70209e-06 273.71 
-0.33 -0.01 -2.93438 4.29972 0.0977846 0.0973152 4.7815e-05 0.09717 1.70407e-06 273.826 
-0.49 -0.07 0.0469571 1.78643 0.0980055 0.097405 -0.00070264 0.0974934 1.7118e-06 273.497 
-0.47 -0.07 0.522854 0.779393 0.097409 0.0959201 -0.000483779 0.0965842 1.69484e-06 273.657 
-0.45 -0.07 1.03858 1.23108 0.0975192 0.0974782 -0.00108366 0.0976539 1.70222e-06 275.489 
-0.49 -0.05 0.476133 3.49544 0.096635 0.0973079 -0.000839319 0.097092 1.71272e-06 272.225 
-0.43 -0.07 0.157962 2.32741 0.0974768 0.0954068 -0.000358112 0.0962856 1.69877e-06 272.181 
-0.47 -0.05 1.1068 0.384464 0.0966822 0.0972718 -0.00102026 0.0974618 1.72742e-06 270.936 
-0.41 -0.07 0.298978 3.16881 0.097176 0.0962626 -6.05573e-05 0.0968024 1.70278e-06 272.997 
-0.45 -0.05 0.737762 3.52976 0.096309 0.096795 -0.000408708 0.0971953 1.71252e-06 272.546 
-0.49 -0.03 1.13776 1.45867 0.0976804 0.0967892 -0.000264139 0.0974851 1.71248e-06 273.366 
-0.39 -0.07 -0.488223 4.74234 0.0982185 0.0967344 -0.000275728 0.0973724 1.72247e-06 271.465 
-0.43 -0.05 -0.584536 3.06108 0.0959437 0.0964565 8.48202e-05 0.0963786 1.69827e-06 272.524 
-0.47 -0.03 1.85548 0.733269 0.0967957 0.0963625 -0.000517214 0.0968853 1.72095e-06 270.346 
-0.27 -0.07 -2.2598 4.16247 0.0982274 0.0964944 0.000124052 0.097565 1.72112e-06 272.215 
-0.31 -0.05 -2.32479 3.85138 0.0972799 0.0966834 9.42299e-05 0.0968352 1.71216e-06 271.593 
-0.27 -0.09 -2.59439 1.80945 0.0971455 0.0963709 0.000570936 0.0967147 1.70591e-06 272.25 
-0.31 -0.07 1.08897 2.14615 0.0983758 0.0967288 0.000549356 0.0972508 1.70288e-06 274.246 
-0.29 -0.07 0.296073 4.32131 0.098023 0.0967917 0.000205814 0.0969352 1.70461e-06 273.077 
-0.25 -0.07 -1.98812 3.32114 0.0980776 0.0966683 0.000425323 0.0970876 1.71283e-06 272.195 
-0.29 -0.05 -2.90596 5.06914 0.0974545 0.09747 0.000484403 0.0973141 1.71584e-06 272.352 
-0.27 -0.05 -2.21385 5.6696 0.097658 0.0972531 0.00019578 0.097498 1.71542e-06 272.933 
-0.31 -0.03 -1.15437 3.79278 0.0980126 0.0975896 0.000756906 0.0976358 1.7141e-06 273.529 
-0.25 -0.05 -1.95137 3.31654 0.0974591 0.0963586 0.000143874 0.0967587 1.71478e-06 270.964 
-0.29 -0.03 -1.64523 6.63677 0.0982676 0.0964477 0.000327709 0.0971854 1.69953e-06 274.601 
-0.27 -0.03 -4.17826 4.61075 0.097647 0.0975658 0.000508058 0.0975367 1.71614e-06 272.926 
-0.31 -0.01 -2.10885 5.22336 0.0979778 0.0978618 -0.000455923 0.0976114 1.70935e-06 274.22 
-0.25 -0.03 -3.54504 3.91805 0.0968486 0.0965434 -0.000646148 0.097552 1.72516e-06 271.542 
-0.29 -0.01 -3.60051 5.00671 0.0974864 0.0966131 0.000352601 0.0969124 1.70367e-06 273.164 
-0.27 -0.01 -2.28082 4.90679 0.0974597 0.0971026 -0.000199627 0.0976971 1.71831e-06 273.03 
-0.33 -0.25 -2.00637 0.921749 0.0978131 0.0960818 0.00104686 0.0968282 1.72066e-06 270.232 
-0.31 -0.25 -1.96792 1.38074 0.0983105 0.0969756 0.000503316 0.0974045 1.70277e-06 274.697 
-0.29 -0.25 -2.55588 -0.2999 0.0994851 0.0983826 -0.000289757 0.0984534 1.73212e-06 272.95 
-0.27 -0.25 -2.7055 1.79363 0.0990055 0.0973481 0.000219659 0.0979158 1.7238e-06 272.77 
-0.29 -0.11 -1.31173 1.69073 0.097599 0.0964517 0.000186388 0.0967404 1.70175e-06 272.987 
-0.27 -0.11 -1.70827 1.42483 0.0965843 0.0964893 3.26915e-05 0.0963457 1.69972e-06 272.198 
-0.31 -0.09 -2.57475 2.35304 0.0980222 0.0971958 0.000266403 0.0977372 1.7146e-06 273.734 
-0.29 -0.09 -0.100207 3.27382 0.0976052 0.0970116 0.00046066 0.0970906 1.7085e-06 272.894 
-0.31 -0.23 -1.22239 2.15959 0.0987634 0.0970445 -3.83818e-05 0.0980414 1.72681e-06 272.643 
-0.29 -0.23 -1.8768 0.474422 0.0988024 0.0976671 -0.000117891 0.0978174 1.7271e-06 271.975 
-0.27 -0.23 -1.77864 3.44942 0.0976432 0.0963847 0.000764026 0.0971703 1.70602e-06 273.513 
-0.31 -0.21 -2.75976 3.02189 0.0964596 0.0966698 -0.000308837 0.0967409 1.70101e-06 273.107 
-0.29 -0.21 -1.53402 3.28852 0.0962827 0.0957812 0.000172269 0.0962386 1.69849e-06 272.093 
-0.27 -0.21 -0.738047 2.78397 0.0962126 0.096359 0.000395165 0.0968428 1.69749e-06 273.963 
-0.31 -0.19 -0.729016 4.32696 0.0964427 0.0972865 0.000446641 0.097005 1.71167e-06 272.147 
-0.25 -0.21 -0.842656 1.84066 0.0976906 0.0975566 0.000162798 0.0978084 1.72435e-06 272.384 
-0.29 -0.19 0.195765 3.63332 0.0957701 0.0945035 1.94895e-05 0.0957639 1.68025e-06 273.689 
-0.27 -0.19 -0.900102 1.99778 0.0968666 0.0970496 -5.45888e-05 0.0978028 1.70512e-06 275.439 
-0.31 -0.17 -0.900233 4.41607 0.0980061 0.0974123 0.000332523 0.097675 1.71541e-06 273.43 
-0.25 -0.19 -1.43415 2.62975 0.0971995 0.0975973 -8.28216e-07 0.0976425 1.70851e-06 274.442 
-0.29 -0.17 -1.10226 4.27075 0.0977787 0.0959668 0.000268171 0.0973814 1.71544e-06 272.603 
-0.27 -0.17 -2.09316 3.09128 0.0964761 0.097079 -0.000339256 0.0970319 1.70496e-06 273.295 
-0.31 -0.15 -2.61725 3.55934 0.0962265 0.0962271 0.000253856 0.0967722 1.70454e-06 272.63 
-0.25 -0.17 -3.20965 1.53553 0.0970528 0.0960184 -7.42312e-05 0.0966022 1.71146e-06 271.051 
-0.29 -0.15 -0.624066 1.72649 0.096981 0.0971322 0.000365205 0.0976232 1.70204e-06 275.432 
-0.27 -0.15 -0.559254 3.81711 0.0974724 0.0978422 -0.000401117 0.0975798 1.70443e-06 274.922 
-0.31 -0.13 -2.36749 2.75098 0.0984304 0.097699 -0.000359825 0.0980755 1.71463e-06 274.675 
-0.25 -0.15 -0.916525 0.457297 0.097443 0.0955875 -4.19822e-05 0.0962383 1.69382e-06 272.842 
-0.29 -0.13 -3.05143 2.0315 0.0976199 0.0967843 -0.000609883 0.0969442 1.70592e-06 272.894 
-0.27 -0.13 -1.78592 3.67554 0.0980044 0.0976067 0.000265087 0.097225 1.70577e-06 273.708 
-0.31 -0.11 -2.02149 2.21685 0.09812 0.0977601 0.00068404 0.0981361 1.7242e-06 273.32 
-0.25 -0.13 -1.63147 2.2823 0.0970262 0.0952516 0.00035397 0.0957617 1.69242e-06 271.716 
-0.25 -0.23 -1.35136 0.971084 0.0976739 0.0979926 0.000542815 0.0981186 1.7154e-06 274.672 
-0.25 -0.11 -1.5567 4.37279 0.0974067 0.0965116 0.000607441 0.0969667 1.69841e-06 274.165 
-0.25 -0.09 -3.56867 3.82556 0.0980141 0.0972323 -0.000180424 0.0976827 1.71362e-06 273.737 
-0.25 -0.01 -1.70553 5.34767 0.0978569 0.0976791 0.00016239 0.0979374 1.71549e-06 274.151 
-0.23 -0.49 -0.491205 0.754769 0.0967636 0.0962847 -0.000250321 0.0962257 1.70034e-06 271.76 
-0.21 -0.49 -2.1531 -1.02291 0.0967198 0.0975031 0.000663042 0.0973603 1.71375e-06 272.814 
-0.19 -0.49 -0.935599 -0.21602 0.0959574 0.0969982 0.000675892 0.0968388 1.69797e-06 273.874 
-0.23 -0.47 -0.499912 -0.442607 0.097547 0.0967541 0.000752684 0.0971978 1.71216e-06 272.611 
-0.17 -0.49 -0.019862 -0.434541 0.0959607 0.0981971 -0.000615788 0.0970562 1.71495e-06 271.771 
-0.21 -0.47 -1.2419 0.34105 0.0963436 0.0967147 0.000899433 0.0967226 1.70655e-06 272.17 
-0.15 -0.49 -0.390603 0.0193716 0.0957831 0.0962527 0.000791077 0.096527 1.70632e-06 271.655 
-0.19 -0.47 -1.53674 0.55828 0.0971211 0.0980076 0.000939485 0.0978837 1.7303e-06 271.657 