ITEM: TIMESTEP
880500
ITEM: NUMBER OF CELLS
2500
ITEM: BOX BOUNDS ss ss pp
-0.5 0.5
-0.5 0.5
-0.5 0.5
ITEM: CELLS xc yc f_U[*] f_V[*] f_Tau[1] f_Tau[2] f_Tau[3] f_Press[*] f_Mrho[*] f_Ttra[*] 
-0.49 -0.49 -0.0900018 0.0780077 0.0973673 0.0972757 8.27247e-06 0.0973508 1.71177e-06 273.102 
-0.47 -0.49 -0.121074 -0.0925373 0.0974314 0.0975237 -4.02392e-05 0.0975226 1.71548e-06 272.993 
-0.45 -0.49 0.0141855 -0.068213 0.0974869 0.0973957 3.44998e-06 0.0975528 1.71613e-06 272.974 
-0.49 -0.47 -0.00641651 0.0795656 0.0972828 0.0973873 -9.25638e-05 0.0973031 1.71295e-06 272.779 
-0.43 -0.49 -0.0243937 0.157094 0.0975051 0.0973711 2.69236e-05 0.0973516 1.71244e-06 272.997 
-0.47 -0.47 0.225668 -0.132881 0.0973764 0.0974214 6.24681e-05 0.0973994 1.71279e-06 273.075 
-0.41 -0.49 -0.0988855 0.0671409 0.0974708 0.0973209 7.40367e-05 0.0973765 1.71384e-06 272.844 
-0.45 -0.47 0.0170057 0.0279107 0.0973696 0.0973645 -2.67206e-06 0.0974818 1.71537e-06 272.895 
-0.49 -0.45 0.0375863 -0.111979 0.0975293 0.097418 3.93162e-06 0.0974242 1.71268e-06 273.161 
-0.39 -0.49 -0.245455 -0.0617303 0.0973957 0.0972301 5.94405e-05 0.0974045 1.71478e-06 272.773 
-0.43 -0.47 -0.0557749 0.117829 0.0973093 0.0973485 6.2111e-05 0.0973345 1.71166e-06 273.074 
-0.47 -0.45 0.0780378 -0.189134 0.0973078 0.0973661 -0.000103568 0.0973331 1.71244e-06 272.946 
-0.37 -0.49 -0.241974 0.0514778 0.0973907 0.0974202 0.000134256 0.0975476 1.71442e-06 273.23 
-0.41 -0.47 -0.310478 0.178605 0.0974355 0.0973586 4.98502e-05 0.0974854 1.71378e-06 273.159 
-0.45 -0.45 0.0794176 0.401881 0.0972651 0.0972308 0.000138243 0.0972781 1.71375e-06 272.582 
-0.49 -0.43 -0.0319913 -0.0594527 0.0972995 0.0973231 7.58103e-05 0.0973708 1.7124e-06 273.058 
-0.35 -0.49 -0.436461 0.22751 0.0973428 0.0973518 4.54609e-05 0.0975033 1.71439e-06 273.112 
-0.39 -0.47 -0.236305 0.0393752 0.0975206 0.0972597 0.000120074 0.0974821 1.71307e-06 273.262 
-0.43 -0.45 -0.306494 -0.00619126 0.0973102 0.0975255 -5.48562e-05 0.0974742 1.71532e-06 272.881 
-0.47 -0.43 -0.215346 -0.166286 0.0973642 0.0974418 6.50583e-05 0.0974569 1.71386e-06 273.067 
-0.37 -0.47 -0.402239 0.167288 0.0975196 0.0973692 4.88121e-05 0.0974558 1.71324e-06 273.162 
-0.41 -0.45 -0.12908 0.327209 0.0972071 0.0972239 -2.06207e-05 0.0972368 1.71164e-06 272.803 
-0.45 -0.43 -0.334197 0.522019 0.0973362 0.0973253 0.00012111 0.0974601 1.71402e-06 273.05 
-0.49 -0.41 0.0902315 -0.0638942 0.0972251 0.097357 4.64879e-05 0.0973111 1.71341e-06 272.73 
-0.35 -0.47 -0.514112 0.285492 0.0975445 0.0974116 0.000103137 0.0974306 1.71333e-06 273.077 
-0.39 -0.45 -0.350683 0.215692 0.0971682 0.0972173 1.8432e-05 0.0971737 1.70893e-06 273.058 
-0.43 -0.43 -0.429975 0.203705 0.0974295 0.0973928 -7.06084e-05 0.0975016 1.71298e-06 273.331 
-0.47 -0.41 -0.0403473 0.177309 0.0973169 0.0973633 -4.6212e-05 0.0973232 1.71396e-06 272.676 
-0.37 -0.45 -0.500831 0.236342 0.0973129 0.097407 -5.44141e-06 0.0973738 1.71301e-06 272.968 
-0.41 -0.43 -0.556389 0.338354 0.0974023 0.0971894 1.24822e-05 0.0973575 1.71233e-06 273.031 
-0.45 -0.41 -0.300867 0.338097 0.0975011 0.097499 5.03872e-06 0.0975758 1.71565e-06 273.113 
-0.49 -0.39 -0.231446 0.19607 0.0974418 0.0974608 -7.2351e-05 0.0975023 1.71354e-06 273.245 
-0.35 -0.45 -0.478657 0.274635 0.0972409 0.0972285 0.000160241 0.0972659 1.7117e-06 272.875 
-0.39 -0.43 -0.278995 0.00712328 0.0973536 0.0972946 1.78865e-05 0.0973326 1.71313e-06 272.833 
-0.43 -0.41 -0.207334 0.530209 0.0973935 0.0973659 6.27914e-05 0.097465 1.71347e-06 273.151 
-0.47 -0.39 -0.381507 0.0893885 0.097421 0.097344 -4.61369e-05 0.0973638 1.71356e-06 272.853 
-0.33 -0.45 -0.502356 0.314969 0.0973827 0.0972976 0.000147607 0.097303 1.71317e-06 272.744 
-0.37 -0.43 -0.553325 0.552854 0.0974301 0.0972944 4.92398e-05 0.0973479 1.7138e-06 272.77 
-0.41 -0.41 -0.469212 0.252527 0.0973154 0.0971615 7.81338e-05 0.0973353 1.71355e-06 272.775 
-0.45 -0.39 -0.251818 0.481205 0.0975403 0.0973625 -0.000110335 0.0974401 1.71622e-06 272.644 
-0.35 -0.43 -0.552604 0.210056 0.0973786 0.0972953 0.000129411 0.0973692 1.71237e-06 273.057 
-0.39 -0.41 -0.771203 0.372263 0.0974719 0.097451 -4.38208e-05 0.0974872 1.71462e-06 273.03 
-0.43 -0.39 -0.11923 0.558124 0.0976314 0.097334 7.3501e-05 0.0975381 1.71604e-06 272.946 
-0.37 -0.41 -0.601475 0.41626 0.097235 0.0970602 5.68971e-05 0.0972165 1.70852e-06 273.244 
-0.41 -0.39 -0.24899 0.44229 0.0976676 0.0973237 4.25126e-05 0.0975738 1.71513e-06 273.191 
-0.35 -0.41 -0.604431 0.133748 0.0973437 0.0973016 9.80897e-06 0.0973339 1.71197e-06 273.023 
-0.39 -0.39 -0.508743 0.560079 0.0975485 0.0973635 5.72553e-05 0.097488 1.7139e-06 273.146 
-0.33 -0.41 -0.468439 0.364978 0.0973739 0.0973836 2.13223e-05 0.0973682 1.71221e-06 273.081 
-0.37 -0.39 -0.445858 0.159434 0.097448 0.0971066 8.53625e-05 0.0973573 1.71087e-06 273.263 
-0.35 -0.39 -0.264354 0.222485 0.0973658 0.0972808 4.52849e-05 0.0973963 1.71071e-06 273.399 
-0.33 -0.39 -0.559713 0.504535 0.0974704 0.0973267 2.99616e-05 0.097394 1.71319e-06 272.996 
-0.37 -0.37 -0.552411 0.136497 0.0976278 0.0972231 8.00765e-05 0.0973635 1.71218e-06 273.071 
-0.49 -0.37 -0.0567222 0.236029 0.097522 0.0974728 -0.00015254 0.0975462 1.71625e-06 272.936 
-0.47 -0.37 -0.0333646 0.440738 0.0975041 0.0974006 -8.61539e-05 0.0975065 1.71435e-06 273.127 
-0.45 -0.37 -0.229817 0.305189 0.0973491 0.097107 -6.65035e-05 0.0972299 1.71243e-06 272.658 
-0.49 -0.35 -0.178318 0.55384 0.0975429 0.0974019 -1.52483e-05 0.0975295 1.71362e-06 273.308 
-0.43 -0.37 -0.401527 0.621355 0.0974707 0.0972615 -2.97067e-05 0.0974443 1.71558e-06 272.757 
-0.47 -0.35 -0.457722 0.257161 0.0975089 0.097327 1.86058e-05 0.0973984 1.71427e-06 272.836 
-0.45 -0.35 -0.182702 0.486931 0.0976473 0.0973159 -4.78309e-05 0.0974675 1.71305e-06 273.225 
-0.49 -0.33 -0.0640873 0.650904 0.097367 0.0972598 -0.000123211 0.0973771 1.71326e-06 272.937 
-0.39 -0.37 -0.352748 0.458453 0.097564 0.0972193 5.24438e-05 0.0974602 1.71235e-06 273.316 
-0.43 -0.35 -0.226698 0.707094 0.0975256 0.0971325 -5.54931e-05 0.0973739 1.7121e-06 273.114 
-0.47 -0.33 0.126275 0.275224 0.0974131 0.097313 -3.29533e-05 0.097374 1.71263e-06 273.029 
-0.41 -0.35 -0.245559 0.546726 0.0975191 0.0973271 -1.17137e-05 0.0975185 1.71526e-06 273.016 
-0.45 -0.33 -0.0449595 0.448644 0.0974073 0.0973783 -8.2128e-05 0.0974526 1.71315e-06 273.167 
-0.49 -0.31 0.1163 0.675657 0.0972055 0.0972408 -0.000136875 0.0972249 1.71056e-06 272.942 
-0.39 -0.35 -0.388588 0.538188 0.097555 0.0971834 9.97816e-06 0.0974805 1.71315e-06 273.245 
-0.43 -0.33 -0.148747 0.80437 0.0973563 0.0970157 -0.000104645 0.0972585 1.71196e-06 272.813 
-0.47 -0.31 -0.254298 0.271312 0.0973044 0.097235 -8.03258e-05 0.097319 1.70904e-06 273.449 
-0.37 -0.35 -0.416917 0.343261 0.0976262 0.0972244 9.86685e-05 0.0974324 1.71298e-06 273.137 
-0.41 -0.33 -0.297308 0.685933 0.0974309 0.097323 -5.66986e-05 0.0973972 1.7132e-06 273.004 
-0.45 -0.31 -0.28836 0.538239 0.0974297 0.097409 -2.45164e-05 0.0974513 1.71235e-06 273.291 
-0.49 -0.29 0.0255438 0.556343 0.0975439 0.0972791 -8.35589e-05 0.0974409 1.71412e-06 272.98 
-0.35 -0.35 -0.736895 0.464848 0.0975331 0.0973959 7.50844e-06 0.0974973 1.71521e-06 272.964 
-0.39 -0.33 -0.367299 0.667595 0.0974957 0.0971083 -4.75387e-05 0.0973754 1.71082e-06 273.322 
-0.43 -0.31 -0.252652 0.809528 0.0973909 0.0972156 -0.000112566 0.0972537 1.71152e-06 272.868 
-0.47 -0.29 -0.058849 0.782784 0.0975316 0.0971625 -0.000178105 0.097352 1.7113e-06 273.179 
-0.37 -0.33 -0.736466 0.684114 0.0975756 0.0972433 5.17709e-05 0.0974517 1.71418e-06 273.001 
-0.41 -0.31 -0.237272 0.849078 0.0974141 0.0972149 -0.000178872 0.0972815 1.71185e-06 272.895 
-0.45 -0.29 -0.41959 0.552922 0.0975436 0.0974501 -9.09978e-05 0.0975493 1.71422e-06 273.268 
-0.49 -0.27 -0.193313 0.806137 0.0975435 0.0973867 -0.000126309 0.0974172 1.7122e-06 273.22 
-0.35 -0.33 -1.06878 0.795532 0.0976876 0.0973784 0.000174621 0.0975593 1.71356e-06 273.401 
-0.39 -0.31 -0.478492 0.858343 0.0974985 0.0971507 -7.77732e-06 0.097394 1.71156e-06 273.256 
-0.43 -0.29 -0.612595 0.642122 0.0976333 0.0972711 -9.32904e-05 0.0975301 1.7137e-06 273.296 
-0.47 -0.27 -0.313301 0.528064 0.0976173 0.0972472 -0.000233887 0.0973843 1.7129e-06 273.015 
-0.33 -0.33 -1.2443 0.858436 0.0975876 0.0972024 0.000130094 0.0974388 1.71265e-06 273.209 
-0.37 -0.31 -0.93257 1.23763 0.0974483 0.0970539 -4.28734e-05 0.0972677 1.71124e-06 272.954 
-0.41 -0.29 -0.699369 1.17834 0.0975513 0.0972182 -9.52584e-05 0.0974308 1.71422e-06 272.935 
-0.45 -0.27 -0.0715731 0.975574 0.0976008 0.0972936 -0.000128038 0.0974965 1.71235e-06 273.418 
-0.35 -0.31 -1.26937 0.849525 0.0973588 0.0973173 0.000135339 0.0973681 1.71045e-06 273.361 
-0.39 -0.29 -0.89883 0.896363 0.0973256 0.096976 -0.000141556 0.0972049 1.71108e-06 272.802 
-0.43 -0.27 -0.380377 0.921071 0.0975539 0.097128 -9.26335e-05 0.0973858 1.71375e-06 272.884 
-0.37 -0.29 -0.584855 1.47793 0.0973988 0.0970008 2.77262e-05 0.097212 1.71038e-06 272.934 
-0.41 -0.27 -0.632983 1.07896 0.0976335 0.0973178 -5.87173e-05 0.097459 1.71621e-06 272.698 
-0.35 -0.29 -0.858686 0.902936 0.0975689 0.097298 -1.98787e-05 0.0974912 1.71396e-06 273.146 
-0.39 -0.27 -0.511469 1.05423 0.097707 0.0969355 -6.63598e-05 0.097358 1.71356e-06 272.837 
-0.33 -0.29 -0.958413 1.37076 0.0976058 0.0970963 0.000166731 0.0973313 1.71195e-06 273.018 
-0.37 -0.27 -0.791514 1.46512 0.0977303 0.0969813 -0.000119176 0.097421 1.7148e-06 272.816 
-0.35 -0.27 -1.13431 1.30118 0.0977439 0.0970879 -2.07714e-05 0.0974596 1.71604e-06 272.726 
-0.41 -0.37 -0.36675 0.716987 0.0974991 0.0973542 5.73014e-05 0.0975211 1.71473e-06 273.106 
-0.35 -0.37 -0.63524 0.229144 0.0976836 0.0973397 1.27152e-06 0.0974676 1.71417e-06 273.046 
-0.45 -0.25 -0.348021 0.994326 0.0975893 0.097198 -0.000202935 0.0974241 1.71365e-06 273.008 
-0.37 -0.25 -0.824397 1.46615 0.0976493 0.0968851 -5.46671e-05 0.0972753 1.71338e-06 272.633 
-0.35 -0.25 -0.69044 1.53166 0.0976939 0.0969703 4.33306e-05 0.0973774 1.71639e-06 272.44 
-0.33 -0.49 -0.723944 -0.00381303 0.0973145 0.0973594 0.000104121 0.0973772 1.71365e-06 272.876 
-0.31 -0.49 -0.769265 0.0238993 0.0973825 0.0971817 0.000209716 0.0973038 1.71064e-06 273.149 
-0.29 -0.49 -0.880847 -0.0204637 0.0974763 0.0974695 0.000112391 0.0975038 1.71525e-06 272.976 
-0.33 -0.47 -0.524513 0.188891 0.0975158 0.0972171 0.000157542 0.0973555 1.71444e-06 272.689 
-0.27 -0.49 -0.63809 0.0883057 0.0975179 0.0974244 0.000190549 0.0974453 1.71397e-06 273.015 
-0.31 -0.47 -0.70557 -0.0195253 0.0974018 0.0973079 0.000116926 0.0973385 1.71268e-06 272.922 
-0.29 -0.47 -0.697703 0.0675388 0.0974419 0.0973914 0.000136629 0.0973786 1.71315e-06 272.96 
-0.27 -0.47 -0.824589 0.0232898 0.0974034 0.0972445 0.00010904 0.0973719 1.7138e-06 272.838 
-0.31 -0.45 -0.512991 0.208418 0.0975681 0.0974386 8.03446e-05 0.0974792 1.71391e-06 273.12 
-0.29 -0.45 -0.591303 0.120714 0.0975254 0.0973553 0.000120807 0.0974594 1.71371e-06 273.096 
-0.33 -0.43 -0.563159 0.407353 0.0973691 0.0972961 7.92151e-05 0.0973965 1.71234e-06 273.139 
-0.27 -0.45 -0.84512 -0.0131332 0.0974723 0.0972858 0.00015944 0.0972966 1.71028e-06 273.188 
-0.31 -0.43 -0.497966 0.138842 0.0973583 0.0973529 4.73612e-05 0.0973451 1.71241e-06 272.984 
-0.29 -0.43 -0.63847 0.294161 0.0973656 0.0972672 0.000171494 0.0973552 1.7104e-06 273.332 
-0.27 -0.43 -0.492341 -0.059651 0.0974775 0.0971921 0.000240397 0.0973189 1.70936e-06 273.398 
-0.31 -0.41 -0.548712 0.351824 0.0973764 0.0971971 9.15608e-05 0.0972829 1.71e-06 273.194 
-0.29 -0.41 -0.806349 0.352086 0.0973957 0.0972187 0.000133343 0.0973104 1.70883e-06 273.459 
-0.27 -0.41 -0.956004 -0.1497 0.0972859 0.0972157 0.000188135 0.0971728 1.70806e-06 273.195 
-0.31 -0.39 -0.91002 0.596267 0.0975112 0.0971731 2.92841e-05 0.0972682 1.71373e-06 272.557 
-0.29 -0.39 -0.835132 0.346094 0.0974452 0.0971895 0.000110602 0.097296 1.71067e-06 273.124 
-0.33 -0.37 -0.663433 0.871828 0.0976102 0.097269 3.17085e-05 0.0974536 1.71339e-06 273.132 
-0.27 -0.39 -1.09829 0.343826 0.09753 0.097331 0.000135009 0.0974336 1.71204e-06 273.291 
-0.31 -0.37 -0.927612 0.584332 0.0974697 0.0971781 0.000108765 0.0972899 1.71004e-06 273.207 
-0.29 -0.37 -1.07968 0.463335 0.0973928 0.097132 0.000195392 0.0973268 1.71066e-06 273.212 
-0.33 -0.35 -0.842718 0.912123 0.0976164 0.0971678 0.000119621 0.0974197 1.71372e-06 272.984 
-0.27 -0.37 -1.36178 0.68783 0.0975147 0.0972127 8.53879e-05 0.0973502 1.71132e-06 273.171 
-0.31 -0.35 -0.922548 0.944245 0.0976496 0.0971494 0.000171946 0.0973478 1.71353e-06 272.814 
-0.29 -0.35 -1.24917 0.615735 0.0976499 0.0972141 0.000117726 0.0973856 1.71367e-06 272.896 
-0.27 -0.35 -1.46169 1.04319 0.0975419 0.0972278 8.3182e-05 0.0973614 1.71489e-06 272.635 
-0.31 -0.33 -1.11217 0.95182 0.0975174 0.09691 0.000106313 0.0972458 1.71262e-06 272.672 
-0.29 -0.33 -1.18096 0.817173 0.0975058 0.0972249 0.000195037 0.0974418 1.71344e-06 273.091 
-0.33 -0.31 -1.29265 0.918559 0.0974982 0.097188 9.66702e-05 0.0973226 1.71252e-06 272.903 
-0.27 -0.33 -1.45413 1.30303 0.0976258 0.097294 0.00016915 0.097556 1.71587e-06 273.023 
-0.31 -0.31 -1.28083 0.836483 0.0974539 0.0970375 0.000160557 0.0973366 1.71408e-06 272.693 
-0.29 -0.31 -1.46925 1.18458 0.0976351 0.0972256 5.78372e-05 0.0974888 1.71524e-06 272.936 
-0.27 -0.31 -1.51939 1.44486 0.0976887 0.0972618 0.0001453 0.0974867 1.71285e-06 273.31 
-0.31 -0.29 -1.42041 0.975172 0.097673 0.0970927 0.000138016 0.097381 1.71298e-06 272.993 
-0.29 -0.29 -1.49159 1.29391 0.0976316 0.0972037 3.94076e-05 0.0974448 1.71383e-06 273.036 
-0.27 -0.29 -1.71007 1.36941 0.0976795 0.0973115 7.33369e-05 0.0975224 1.71432e-06 273.177 
-0.31 -0.27 -1.17787 1.35656 0.0977206 0.0971963 6.72115e-05 0.0974317 1.71247e-06 273.217 
-0.25 -0.29 -1.85942 1.29035 0.0976008 0.097213 0.000262901 0.0973977 1.71306e-06 273.028 
-0.29 -0.27 -1.44405 1.50602 0.0977627 0.0972604 2.36694e-05 0.0974949 1.71117e-06 273.603 
-0.27 -0.27 -1.85602 1.55823 0.0976033 0.0971452 0.000171737 0.0973823 1.71175e-06 273.193 
-0.25 -0.27 -2.08411 1.75988 0.0975998 0.0971467 0.000192694 0.0972822 1.71087e-06 273.054 
-0.33 -0.27 -1.33035 1.29064 0.0976968 0.0970239 0.000119861 0.0973136 1.7127e-06 272.849 
-0.25 -0.49 -0.738565 -0.151671 0.0973998 0.0975142 0.000196642 0.0975058 1.71641e-06 272.798 
-0.25 -0.47 -0.734167 0.118438 0.0975803 0.0975651 0.000270334 0.0974463 1.71418e-06 272.985 
-0.25 -0.45 -0.718597 0.13176 0.0973137 0.0973973 0.000206067 0.0972411 1.70832e-06 273.345 
-0.25 -0.37 -1.58866 0.666569 0.0974737 0.0973042 0.000130993 0.0974452 1.71091e-06 273.504 
-0.25 -0.35 -1.56989 0.492529 0.0976449 0.0972414 0.000135828 0.0974488 1.71441e-06 272.956 
-0.25 -0.33 -1.7179 0.86422 0.0975926 0.097116 4.63521e-05 0.0974592 1.71327e-06 273.167 
-0.25 -0.25 -2.33743 1.73369 0.0978812 0.097265 5.3961e-05 0.0976156 1.71556e-06 273.239 
-0.49 -0.25 0.16057 0.770237 0.0976794 0.09735 -8.60654e-05 0.0975191 1.71358e-06 273.285 
-0.47 -0.25 0.0734456 0.645956 0.0975103 0.097188 -0.000176037 0.0973638 1.71221e-06 273.068 
-0.49 -0.23 -0.0810385 0.624065 0.0973828 0.0972028 -0.000162006 0.0972453 1.70955e-06 273.159 
-0.47 -0.23 0.0988928 0.87889 0.0976495 0.0973249 -0.000206228 0.0973954 1.71261e-06 273.093 
-0.45 -0.23 -0.0885789 1.2677 0.0975896 0.0970754 -0.00029294 0.0973402 1.71148e-06 273.119 
-0.49 -0.21 -0.0712467 0.776843 0.0976913 0.0973759 -0.000216033 0.0976419 1.71562e-06 273.303 
-0.43 -0.23 -0.415513 1.05042 0.0977276 0.097241 -0.000154109 0.0974313 1.71328e-06 273.086 
-0.47 -0.21 -0.204458 0.730838 0.0975224 0.0974017 -0.000139051 0.0975648 1.71613e-06 273.007 
-0.41 -0.23 -0.607994 1.58706 0.0977002 0.0971227 -4.44101e-05 0.0974382 1.71473e-06 272.875 
-0.45 -0.21 -0.134219 1.22263 0.0976098 0.0971238 -0.000298346 0.0974445 1.71408e-06 272.997 
-0.49 -0.19 -0.100015 0.974742 0.0975887 0.0971516 -0.000231337 0.0973885 1.71391e-06 272.866 
-0.39 -0.23 -0.56565 1.24364 0.097614 0.0970776 -1.52237e-05 0.0973474 1.71474e-06 272.62 
-0.43 -0.21 -0.431896 1.59494 0.0975796 0.0970095 -0.00021697 0.0973053 1.71242e-06 272.871 
-0.47 -0.19 -0.480963 0.967945 0.0977621 0.0974583 -0.000243059 0.0975826 1.71798e-06 272.762 
-0.41 -0.21 -0.590582 1.47228 0.0975553 0.0970416 -8.55578e-05 0.0972805 1.71172e-06 272.913 
-0.45 -0.19 -0.906456 1.44683 0.0976229 0.0971542 -0.00022354 0.0974301 1.71251e-06 273.206 
-0.49 -0.17 -0.132788 1.0281 0.0974731 0.0971506 -0.000249943 0.0973189 1.71169e-06 273.025 
-0.39 -0.21 -0.541927 1.39058 0.0976478 0.0969958 -4.40523e-05 0.097344 1.70897e-06 273.531 
-0.43 -0.19 -0.608903 1.42133 0.0976399 0.0969393 -0.000164313 0.0973783 1.71013e-06 273.441 
-0.47 -0.17 -0.308198 1.20834 0.0975119 0.0973277 -0.000278988 0.097439 1.71359e-06 273.059 
-0.41 -0.19 -0.345325 1.37193 0.0977331 0.0969833 -0.000142033 0.0974105 1.71341e-06 273.008 
-0.45 -0.17 -0.183952 1.5046 0.0976687 0.0971426 -0.000256 0.0974197 1.7128e-06 273.131 
-0.49 -0.15 -0.00551692 1.08174 0.0974665 0.0972928 -0.000333278 0.0973566 1.71647e-06 272.37 
-0.39 -0.19 -0.942374 1.91486 0.0978372 0.0970307 -0.000105652 0.0973812 1.71015e-06 273.446 
-0.43 -0.17 -0.333634 1.29275 0.0976483 0.0970149 -0.000201616 0.0974205 1.71137e-06 273.362 
-0.47 -0.15 -0.164325 1.34799 0.0975899 0.0972745 -0.000315067 0.0974555 1.71471e-06 272.927 
-0.41 -0.17 -0.779784 1.78886 0.0976342 0.096875 -0.000247664 0.0972143 1.71e-06 273 
-0.45 -0.15 -0.328913 1.44 0.0975243 0.0971285 -0.000253891 0.0973186 1.71246e-06 272.901 
-0.39 -0.17 -1.07468 2.19168 0.0976091 0.0969204 -0.000124654 0.0973028 1.70982e-06 273.278 
-0.43 -0.15 -0.381724 1.72605 0.0975948 0.0968494 -0.000162814 0.0972492 1.71006e-06 273.09 
-0.41 -0.15 -0.889923 2.19371 0.0975475 0.0969082 -0.000181328 0.0972107 1.71116e-06 272.806 
-0.39 -0.15 -1.02257 2.29742 0.0975997 0.0967805 -0.000147624 0.0972641 1.71059e-06 273.047 
-0.43 -0.25 -0.2858 1.08646 0.0976916 0.0971556 -0.000143932 0.0974831 1.71282e-06 273.305 
-0.41 -0.25 -0.410177 1.34242 0.0976872 0.097235 -0.000144751 0.0974861 1.71449e-06 273.048 
-0.39 -0.25 -0.680462 1.28497 0.0977422 0.0970466 -8.2845e-05 0.0973736 1.71472e-06 272.695 
-0.37 -0.23 -0.650189 1.70772 0.0976112 0.0969412 -2.03939e-05 0.0973256 1.71462e-06 272.577 
-0.35 -0.23 -1.23228 1.71898 0.0976162 0.0970479 -9.52549e-05 0.0973525 1.71503e-06 272.587 
-0.33 -0.23 -1.52112 1.81039 0.0974924 0.0970363 -7.68313e-05 0.0972678 1.71012e-06 273.132 
-0.37 -0.21 -0.987723 2.11451 0.0977084 0.0970152 -4.84495e-05 0.0973842 1.71183e-06 273.187 
-0.35 -0.21 -1.24622 2.23863 0.0977047 0.0970594 -0.000133845 0.0973732 1.71315e-06 272.944 
-0.33 -0.21 -1.43137 2.03269 0.0977952 0.0970438 4.74586e-06 0.0974113 1.71375e-06 272.956 
-0.37 -0.19 -1.25711 2.18804 0.0978406 0.0970299 -8.13501e-05 0.0975252 1.71331e-06 273.345 
-0.35 -0.19 -1.31523 2.36674 0.0976827 0.0969584 4.47033e-05 0.0973261 1.71408e-06 272.664 
-0.33 -0.19 -1.38161 2.17689 0.0976409 0.0969518 3.6294e-05 0.0973232 1.71116e-06 273.121 
-0.37 -0.17 -1.09208 2.47404 0.0975944 0.0969408 -2.41026e-05 0.0973321 1.71092e-06 273.185 
-0.35 -0.17 -1.538 2.42133 0.0976724 0.0969927 9.21678e-05 0.0973459 1.70948e-06 273.454 
-0.33 -0.17 -1.80101 2.40123 0.097701 0.0969948 7.50617e-06 0.0973331 1.71006e-06 273.325 
-0.37 -0.15 -1.0751 2.67574 0.0975867 0.0968226 -7.2572e-05 0.097195 1.70739e-06 273.364 
-0.35 -0.15 -1.32068 2.75585 0.097666 0.0970431 -5.83515e-05 0.0973951 1.71028e-06 273.465 
-0.33 -0.15 -1.60002 2.75371 0.0976394 0.0969402 5.53133e-05 0.097218 1.70875e-06 273.211 
-0.35 -0.13 -1.38821 3.0756 0.0976473 0.09684 -4.76119e-05 0.0972342 1.71116e-06 272.872 
-0.33 -0.13 -1.74249 2.94419 0.0976393 0.0968903 9.61108e-05 0.0972927 1.71206e-06 272.892 
-0.33 -0.09 -1.85825 3.62831 0.0973761 0.0965728 1.09032e-05 0.0969716 1.70829e-06 272.592 
-0.37 -0.13 -1.53044 2.68711 0.0976057 0.0968654 -0.000161519 0.0971667 1.70996e-06 272.874 
-0.37 -0.11 -1.58479 2.79778 0.097506 0.0967167 -0.00015264 0.097075 1.70765e-06 272.986 
-0.35 -0.11 -1.81022 3.18246 0.0974056 0.0967409 -5.56084e-05 0.0971202 1.70827e-06 273.013 
-0.33 -0.11 -1.87023 3.31778 0.0974093 0.0966699 0.000111381 0.097114 1.71038e-06 272.66 
-0.35 -0.09 -1.536 3.18901 0.0974066 0.0966347 -5.72819e-06 0.0970291 1.70756e-06 272.871 
-0.49 -0.13 0.0382632 1.31362 0.0973872 0.0972825 -0.000456884 0.0972918 1.71053e-06 273.134 
-0.47 -0.13 -0.045825 1.51861 0.0974252 0.0970601 -0.000361112 0.0972804 1.71057e-06 273.095 
-0.45 -0.13 -0.223778 1.48258 0.0975505 0.0971408 -0.000229923 0.097294 1.71262e-06 272.807 
-0.49 -0.11 0.0606579 1.15132 0.0976697 0.0972846 -0.000414687 0.0975052 1.71497e-06 273.025 
-0.43 -0.13 -0.774487 2.06837 0.097546 0.0967433 -0.000261858 0.0971752 1.70769e-06 273.26 
-0.47 -0.11 -0.0478431 1.72054 0.0976132 0.0970275 -0.000341459 0.0973512 1.71233e-06 273.013 
-0.41 -0.13 -0.947931 2.63639 0.0975593 0.0969404 -0.000233002 0.0972527 1.71087e-06 272.969 
-0.45 -0.11 -0.53702 2.11877 0.0974553 0.0969587 -0.000256259 0.0972344 1.70972e-06 273.103 
-0.49 -0.09 -0.126299 1.22348 0.0974188 0.0971422 -0.000354703 0.0972535 1.71101e-06 272.949 
-0.39 -0.13 -1.3778 2.45706 0.097586 0.0968121 -0.000112047 0.0972449 1.71063e-06 272.986 
-0.43 -0.11 -0.890276 2.32894 0.0973818 0.0968027 -0.000285411 0.0971632 1.70705e-06 273.329 
-0.47 -0.09 -0.458969 2.08413 0.0973943 0.0969607 -0.000343714 0.0971198 1.70829e-06 273.009 
-0.41 -0.11 -1.06917 2.91157 0.0974639 0.096819 -0.000259933 0.0971873 1.70886e-06 273.108 
-0.45 -0.09 -0.450772 2.22016 0.0974357 0.0968808 -0.000253694 0.0972587 1.71071e-06 273.013 
-0.39 -0.11 -1.24287 2.77186 0.0974787 0.0968592 -0.000108548 0.097172 1.70928e-06 272.997 
-0.43 -0.09 -0.582065 2.58135 0.0975947 0.0969716 -0.00029819 0.097254 1.70812e-06 273.414 
-0.41 -0.09 -0.84408 3.06005 0.0973931 0.0965607 -0.000223576 0.096963 1.70572e-06 272.979 
-0.39 -0.09 -1.00204 2.89494 0.0975023 0.0968166 -0.000164291 0.0971095 1.70929e-06 272.82 
-0.37 -0.09 -1.27974 3.38915 0.0974301 0.096738 -9.7108e-05 0.0970444 1.70772e-06 272.888 
-0.35 -0.03 -1.89485 4.14753 0.0974778 0.0964842 -6.13651e-05 0.0970316 1.70508e-06 273.275 
-0.37 -0.07 -1.32482 3.34415 0.0974538 0.0966123 -8.28968e-05 0.0971043 1.7087e-06 272.9 
-0.41 -0.05 -0.984679 3.45875 0.0972934 0.0965645 -0.000286657 0.0969052 1.70499e-06 272.933 
-0.45 -0.03 -0.36815 2.92388 0.0973388 0.0965639 -0.000363961 0.097034 1.70696e-06 272.981 
-0.35 -0.07 -1.66935 3.67894 0.0975775 0.0965083 -1.73504e-05 0.0970955 1.70865e-06 272.882 
-0.39 -0.05 -0.885474 3.52026 0.097364 0.0966337 -0.000250095 0.097052 1.70879e-06 272.739 
-0.43 -0.03 -0.617789 3.29048 0.097483 0.0968299 -0.00022735 0.0971637 1.70837e-06 273.12 
-0.33 -0.07 -1.74848 3.57344 0.0975386 0.0966013 6.50748e-05 0.0970724 1.70944e-06 272.692 
-0.37 -0.05 -1.47896 3.69993 0.0973582 0.0965996 -0.000107959 0.0969865 1.70755e-06 272.753 
-0.41 -0.03 -1.02064 3.45168 0.0974667 0.0966632 -0.000198786 0.0970488 1.70674e-06 273.057 
-0.35 -0.05 -1.61332 3.94789 0.0972702 0.0963237 -3.8508e-06 0.0968289 1.70589e-06 272.574 
-0.39 -0.03 -1.48744 3.73273 0.0973049 0.0964909 -0.000134724 0.0968234 1.70644e-06 272.471 
-0.33 -0.05 -2.04479 4.019 0.0975156 0.0965857 6.46626e-05 0.097096 1.71051e-06 272.588 
-0.37 -0.03 -1.38437 4.1517 0.0973591 0.0964714 -0.000141051 0.0969565 1.7071e-06 272.74 
-0.33 -0.03 -1.96626 4.22108 0.0973877 0.0964525 -1.5414e-05 0.0969491 1.70591e-06 272.909 
-0.33 -0.01 -2.0387 4.19307 0.0974395 0.0962998 -4.66367e-05 0.0968537 1.70437e-06 272.888 
-0.49 -0.07 -0.225301 1.48795 0.0972595 0.0970393 -0.000442723 0.0971354 1.7087e-06 272.987 
-0.47 -0.07 -0.446977 2.29335 0.0973321 0.0968038 -0.000327477 0.0970901 1.70776e-06 273.01 
-0.45 -0.07 -0.593042 2.17593 0.0973485 0.0968749 -0.000355859 0.0970982 1.70897e-06 272.839 
-0.49 -0.05 -0.120135 1.84393 0.0974133 0.096901 -0.000490007 0.0971147 1.70855e-06 272.953 
-0.43 -0.07 -0.653013 2.73509 0.0974021 0.0968843 -0.000278887 0.0971119 1.70702e-06 273.189 
-0.47 -0.05 -0.0652346 2.28602 0.097423 0.0968936 -0.000465058 0.0972109 1.71165e-06 272.728 
-0.41 -0.07 -0.854612 3.35404 0.097586 0.0966451 -0.000191944 0.0970485 1.70867e-06 272.747 
-0.45 -0.05 -0.412437 2.5412 0.0974521 0.0967796 -0.000335433 0.0972132 1.71062e-06 272.9 
-0.49 -0.03 -0.0321138 2.04197 0.0974602 0.0968721 -0.000482268 0.0972047 1.70957e-06 273.043 
-0.39 -0.07 -1.14267 3.39124 0.0975473 0.0967349 -0.000227529 0.0970659 1.70729e-06 273.016 
-0.43 -0.05 -0.921359 2.86938 0.0974114 0.0969462 -0.00027494 0.0971784 1.70964e-06 272.958 
-0.47 -0.03 -0.0206959 2.28516 0.0974668 0.0968676 -0.000429313 0.097107 1.70858e-06 272.926 
-0.27 -0.07 -2.85879 3.87296 0.0976237 0.0968385 0.000198932 0.0972214 1.7089e-06 273.196 
-0.31 -0.05 -2.26934 3.83557 0.0976145 0.0967586 9.13264e-05 0.0971846 1.7106e-06 272.822 
-0.27 -0.09 -2.27019 3.50263 0.097595 0.096963 0.000206573 0.0972767 1.70883e-06 273.363 
-0.31 -0.07 -1.99734 3.61192 0.0974492 0.0967446 0.000121304 0.0971924 1.71042e-06 272.873 
-0.29 -0.07 -2.57511 3.80424 0.0975 0.0967913 0.000120395 0.0971339 1.70697e-06 273.26 
-0.25 -0.07 -2.86586 3.17882 0.0975947 0.0971258 0.000185712 0.0973469 1.71087e-06 273.235 
-0.29 -0.05 -2.62727 4.16119 0.0976272 0.0967069 7.20161e-05 0.0971093 1.70737e-06 273.127 
-0.27 -0.05 -2.58343 3.92502 0.0975527 0.0967679 0.000113097 0.0971568 1.70829e-06 273.113 
-0.31 -0.03 -2.36129 4.29967 0.0973524 0.0967976 2.14759e-05 0.097128 1.71164e-06 272.497 
-0.25 -0.05 -2.80847 3.56428 0.0974895 0.0969677 0.000280232 0.0971984 1.71078e-06 272.831 
-0.29 -0.03 -2.44836 4.26073 0.0974278 0.0966886 8.59827e-05 0.0970498 1.70765e-06 272.914 
-0.27 -0.03 -2.68305 3.9936 0.0974246 0.0966278 0.000162311 0.0971575 1.70798e-06 273.164 
-0.31 -0.01 -2.36003 4.84624 0.0974742 0.0967851 -1.51304e-05 0.0971871 1.7106e-06 272.828 
-0.25 -0.03 -2.85438 3.93022 0.0974016 0.0968543 0.000312784 0.0971494 1.71184e-06 272.526 
-0.29 -0.01 -2.61266 4.43248 0.0973164 0.0965609 0.000140932 0.0970409 1.70793e-06 272.845 
-0.27 -0.01 -2.91103 4.20262 0.0972059 0.0965485 0.000163356 0.0971069 1.70912e-06 272.839 
-0.33 -0.25 -1.06338 1.4949 0.0978524 0.0970962 3.65406e-05 0.097456 1.71465e-06 272.938 
-0.31 -0.25 -1.47007 1.40231 0.0978459 0.0972334 -3.40483e-05 0.0975736 1.71593e-06 273.063 
-0.29 -0.25 -1.77745 2.00664 0.0976915 0.0970372 0.000177307 0.0974008 1.71292e-06 273.059 
-0.27 -0.25 -2.10875 2.03879 0.0977513 0.097174 0.000224971 0.0974696 1.71424e-06 273.041 
-0.29 -0.11 -2.3706 3.3902 0.0976966 0.0969402 0.000121 0.0973378 1.71253e-06 272.943 
-0.27 -0.11 -2.67924 3.16653 0.0974374 0.0968867 0.000229431 0.097162 1.70742e-06 273.266 
-0.31 -0.09 -2.02938 3.22852 0.097466 0.0968748 5.92288e-05 0.0972357 1.71041e-06 272.996 
-0.29 -0.09 -1.89224 3.66499 0.0974503 0.0967533 0.000186613 0.097118 1.70785e-06 273.073 
-0.31 -0.23 -1.63177 1.84682 0.0974793 0.0971447 7.82653e-05 0.0973736 1.71304e-06 272.963 
-0.29 -0.23 -1.99462 2.16662 0.0976372 0.09694 8.82533e-05 0.0973086 1.71126e-06 273.064 
-0.27 -0.23 -1.80914 2.17671 0.0977576 0.0972634 8.77015e-05 0.0975364 1.71407e-06 273.255 
-0.31 -0.21 -1.79081 2.04199 0.097819 0.0971111 2.8019e-05 0.0973945 1.71313e-06 273.008 
-0.29 -0.21 -1.68429 2.10902 0.0977059 0.0969032 -1.84133e-05 0.0973917 1.7127e-06 273.069 
-0.27 -0.21 -1.76577 2.44416 0.0976661 0.097145 0.000110031 0.097432 1.71322e-06 273.099 
-0.31 -0.19 -1.58112 2.41151 0.0976864 0.09704 1.80413e-06 0.0973006 1.71083e-06 273.111 
-0.25 -0.21 -2.13085 2.30328 0.0977864 0.0971209 0.00018178 0.0973567 1.71173e-06 273.125 
-0.29 -0.19 -1.8273 2.1647 0.0976338 0.0969226 3.47771e-05 0.0973234 1.71226e-06 272.946 
-0.27 -0.19 -2.10493 2.45068 0.0975853 0.0970738 9.00649e-05 0.0973574 1.71232e-06 273.032 
-0.31 -0.17 -2.0334 2.65246 0.0976312 0.0970074 6.88046e-05 0.0973079 1.71086e-06 273.126 
-0.25 -0.19 -2.23514 2.66409 0.0975008 0.0969996 0.000181802 0.0972685 1.71397e-06 272.521 
-0.29 -0.17 -2.18909 2.47082 0.0975167 0.0967795 0.000138104 0.0972311 1.70926e-06 273.167 
-0.27 -0.17 -2.48057 2.82254 0.0975868 0.0971178 0.000139079 0.0973827 1.71195e-06 273.163 
-0.31 -0.15 -1.81068 2.75472 0.0976568 0.096963 9.0185e-05 0.0973071 1.71229e-06 272.896 
-0.25 -0.17 -2.71707 2.64943 0.0975302 0.0969343 0.000129681 0.0971788 1.70969e-06 272.951 
-0.29 -0.15 -2.10885 2.69808 0.0977197 0.0969497 9.0113e-05 0.097367 1.71181e-06 273.141 
-0.27 -0.15 -2.27324 2.94559 0.0976463 0.0969755 0.000200024 0.0973171 1.7112e-06 273.097 
-0.31 -0.13 -2.05194 3.01512 0.09754 0.0969559 0.000233458 0.0973126 1.71067e-06 273.171 
-0.25 -0.15 -2.37107 2.72188 0.0975438 0.096994 0.00017702 0.0971942 1.70949e-06 273.026 
-0.29 -0.13 -2.30767 3.11987 0.0974432 0.0969226 0.00016303 0.097208 1.71023e-06 272.946 
-0.27 -0.13 -2.50489 2.8346 0.0975188 0.0968468 9.19085e-05 0.0970894 1.7079e-06 272.985 
-0.31 -0.11 -1.97899 3.14046 0.0975632 0.0969457 0.000153205 0.0972679 1.70957e-06 273.22 
-0.25 -0.13 -2.53595 2.87517 0.0976713 0.0969961 0.000273621 0.097316 1.71135e-06 273.071 
-0.25 -0.23 -2.05111 1.91209 0.0976253 0.0972304 0.000151404 0.0974023 1.7137e-06 272.938 
-0.25 -0.11 -2.84966 2.98968 0.0973903 0.0969606 0.000149941 0.0971155 1.70895e-06 272.891 
-0.25 -0.09 -2.67056 3.02613 0.0975815 0.0969837 0.000147907 0.0973565 1.7086e-06 273.624 
-0.25 -0.01 -3.2214 4.22997 0.0973202 0.0968908 0.000203773 0.0970886 1.71152e-06 272.407 
-0.23 -0.49 -0.650858 0.19409 0.0973255 0.0974746 0.000233262 0.0974858 1.71472e-06 273.01 
-0.21 -0.49 -0.795316 -0.168084 0.0973305 0.0970763 0.000231091 0.0972997 1.71145e-06 273.009 
-0.19 -0.49 -0.777051 -0.00838852 0.0973634 0.0973791 0.000265932 0.0973853 1.71365e-06 272.899 
-0.23 -0.47 -0.895894 -0.205602 0.0974789 0.0973769 0.000280697 0.0974256 1.71621e-06 272.605 
-0.17 -0.49 -0.571622 -0.288852 0.0972979 0.0974654 0.000271705 0.0974547 1.71435e-06 272.982 
-0.21 -0.47 -0.843975 0.0670309 0.0973878 0.0971057 0.000254583 0.0972741 1.71092e-06 273.021 
-0.15 -0.49 -0.445913 0.0839206 0.0973758 0.0974515 0.000249444 0.0974606 1.71458e-06 272.962 