ITEM: TIMESTEP
801500
ITEM: NUMBER OF CELLS
2500
ITEM: BOX BOUNDS ss ss pp
-0.5 0.5
-0.5 0.5
-0.5 0.5
ITEM: CELLS xc yc f_U[*] f_V[*] f_Tau[1] f_Tau[2] f_Tau[3] f_Press[*] f_Mrho[*] f_Ttra[*] 
-0.49 -0.49 -1.45711 -0.3145 0.0968806 0.0968124 0.000625384 0.0967407 1.69637e-06 273.854 
-0.47 -0.49 0.531655 -0.395485 0.0973113 0.0966168 0.000402807 0.0967055 1.71239e-06 271.193 
-0.45 -0.49 1.38652 1.94031 0.0972579 0.0984037 -0.000493584 0.098069 1.72393e-06 273.176 
-0.49 -0.47 -0.407154 -0.144459 0.0950866 0.0966052 0.000192744 0.096249 1.69402e-06 272.839 
-0.43 -0.49 1.03376 -0.24625 0.0971979 0.0971072 -3.82548e-06 0.0968485 1.71529e-06 271.135 
-0.47 -0.47 0.305956 -0.126885 0.0954835 0.0969371 0.000387586 0.0967019 1.71553e-06 270.687 
-0.41 -0.49 0.134799 -0.159393 0.0967077 0.0973451 0.000166381 0.0974399 1.72001e-06 272.042 
-0.45 -0.47 -2.15626 1.19894 0.0954558 0.0971876 0.000364311 0.0966244 1.70026e-06 272.899 
-0.49 -0.45 -2.44512 -0.473318 0.0968464 0.0976225 -0.000181014 0.0975375 1.71393e-06 273.28 
-0.39 -0.49 -1.23721 -0.929016 0.0965841 0.0961032 -2.61475e-05 0.0964557 1.70387e-06 271.846 
-0.43 -0.47 -0.623667 0.497975 0.0966004 0.0971633 -0.000264344 0.0971058 1.71792e-06 271.439 
-0.47 -0.45 -2.76665 -0.82802 0.0966507 0.0981024 -0.0001596 0.0973037 1.71638e-06 272.237 
-0.37 -0.49 -3.0183 0.247281 0.0964125 0.0960456 -9.19107e-05 0.0964646 1.71699e-06 269.792 
-0.41 -0.47 -0.858902 2.22774 0.0966668 0.0965282 0.000971313 0.0963585 1.69897e-06 272.354 
-0.45 -0.45 -0.676949 1.11022 0.0965057 0.0966463 5.07916e-05 0.0963609 1.6939e-06 273.177 
-0.49 -0.43 -0.692636 0.400313 0.0976132 0.0971641 0.000237075 0.0977439 1.7213e-06 272.686 
-0.35 -0.49 -2.6628 -1.47261 0.0956157 0.0963316 -0.000105753 0.0963045 1.7103e-06 270.399 
-0.39 -0.47 -0.535633 -1.70216 0.097601 0.097892 0.00133847 0.097823 1.72343e-06 272.569 
-0.43 -0.45 -0.461968 0.469629 0.0969197 0.0963527 -0.00027265 0.0968547 1.70709e-06 272.454 
-0.47 -0.43 -0.700598 -0.249312 0.0970805 0.0979235 0.000355059 0.0973301 1.71826e-06 272.012 
-0.37 -0.47 -0.357536 1.88292 0.097058 0.0969432 -0.00050534 0.0970439 1.70857e-06 272.751 
-0.41 -0.45 -0.0986222 1.29004 0.0971251 0.0968951 -4.17647e-05 0.0976553 1.71469e-06 273.49 
-0.45 -0.43 0.0284565 -0.47579 0.0978674 0.0981427 0.000377438 0.0982688 1.71999e-06 274.36 
-0.49 -0.41 -0.924012 2.12593 0.0960724 0.0961467 -0.000218306 0.0961453 1.70585e-06 270.656 
-0.35 -0.47 0.209486 -1.02587 0.0992756 0.0972353 -0.000595655 0.0980734 1.73004e-06 272.223 
-0.39 -0.45 0.90616 0.0909198 0.0993368 0.0983932 0.000825234 0.0987207 1.72819e-06 274.314 
-0.43 -0.43 -3.3379 -0.167147 0.0977718 0.096111 -0.000728383 0.0971184 1.70705e-06 273.203 
-0.47 -0.41 -2.5677 -1.33171 0.0979731 0.0974558 0.000549113 0.097573 1.7105e-06 273.929 
-0.37 -0.45 1.05147 -1.03411 0.0986795 0.0976126 0.000554078 0.0984838 1.73321e-06 272.862 
-0.41 -0.43 -0.987943 -0.718597 0.0976172 0.0966217 -0.000428409 0.097646 1.71058e-06 274.121 
-0.45 -0.41 -1.04096 1.27373 0.097639 0.0986063 0.000426599 0.0976337 1.71487e-06 273.4 
-0.49 -0.39 1.18029 1.32897 0.0982027 0.0976387 0.000411283 0.0975698 1.71193e-06 273.69 
-0.35 -0.45 0.140721 -0.559059 0.0974315 0.0966544 0.000369085 0.0972405 1.71124e-06 272.877 
-0.39 -0.43 0.429355 -0.376736 0.0984147 0.0980245 0.000597525 0.0982177 1.71204e-06 275.49 
-0.43 -0.41 -0.381071 -2.39223 0.0979805 0.0972085 -0.000298246 0.0976096 1.71668e-06 273.044 
-0.47 -0.39 -0.590254 -0.043729 0.0982217 0.097147 -0.000791061 0.0976387 1.71686e-06 273.097 
-0.33 -0.45 0.339042 0.624026 0.0971728 0.0968287 -0.000308634 0.0969752 1.71599e-06 271.379 
-0.37 -0.43 -0.503335 -1.71641 0.0990501 0.0990831 0.00038383 0.0988604 1.71776e-06 276.37 
-0.41 -0.41 -1.00276 -0.126917 0.0976846 0.0964032 -4.29921e-06 0.0973479 1.72282e-06 271.342 
-0.45 -0.39 0.0679653 -0.988413 0.0995243 0.0984731 -0.000157675 0.097981 1.72185e-06 273.26 
-0.35 -0.43 0.59817 -0.886817 0.0989805 0.0978078 0.00020134 0.0983058 1.71807e-06 274.77 
-0.39 -0.41 -1.76336 0.690235 0.0982734 0.0979262 -0.000150232 0.0982775 1.73777e-06 271.576 
-0.43 -0.39 1.4439 1.0931 0.0991269 0.0978554 0.000712103 0.0984021 1.72051e-06 274.648 
-0.37 -0.41 -2.0383 1.57768 0.0975773 0.0985051 0.000164382 0.0979641 1.72503e-06 272.709 
-0.41 -0.39 -1.57688 -1.70117 0.0991005 0.0979572 -0.000281244 0.0983262 1.73227e-06 272.574 
-0.35 -0.41 -1.50563 -1.65015 0.0967802 0.0974363 -0.000210705 0.0969122 1.7121e-06 271.819 
-0.39 -0.39 -2.24345 1.10133 0.0973683 0.0970226 7.8547e-05 0.0966794 1.71039e-06 271.437 
-0.33 -0.41 -2.34104 1.95421 0.0971241 0.0969449 -6.97268e-05 0.0966454 1.70232e-06 272.627 
-0.37 -0.39 -2.99506 -0.459964 0.0977388 0.0979623 0.0005416 0.0983122 1.72452e-06 273.76 
-0.35 -0.39 -1.63418 -0.495605 0.0970705 0.0970803 -0.000168301 0.0972642 1.71387e-06 272.525 
-0.33 -0.39 -1.46181 -1.50633 0.0964986 0.0974212 -0.000425226 0.0967909 1.69821e-06 273.7 
-0.37 -0.37 -0.354507 -0.54193 0.0975988 0.097704 1.99042e-05 0.0977755 1.70743e-06 274.991 
-0.49 -0.37 -0.694384 0.382556 0.0972702 0.0979513 0.000484007 0.0977316 1.72293e-06 272.395 
-0.47 -0.37 -0.469439 -2.21555 0.0975675 0.0969787 0.000827417 0.0971865 1.71514e-06 272.105 
-0.45 -0.37 -0.516021 -1.64268 0.098009 0.0976014 -0.000465844 0.097632 1.70651e-06 274.735 
-0.49 -0.35 -0.340099 -0.676337 0.0980676 0.0985338 -0.00033876 0.0991425 1.7216e-06 276.539 
-0.43 -0.37 -0.840892 2.77457 0.0986579 0.0978581 0.000177443 0.0982618 1.72058e-06 274.246 
-0.47 -0.35 -1.04422 -0.991281 0.0971746 0.0975632 1.42146e-05 0.0977202 1.71363e-06 273.84 
-0.45 -0.35 -2.2668 0.888437 0.0977696 0.0987448 8.52346e-05 0.0979711 1.71613e-06 274.143 
-0.49 -0.33 -0.627865 0.551592 0.0984231 0.0975821 0.000305894 0.097893 1.73051e-06 271.649 
-0.39 -0.37 -0.399277 1.86651 0.0970475 0.0975127 6.89395e-05 0.0972373 1.71191e-06 272.761 
-0.43 -0.35 0.171467 0.277232 0.0984512 0.0976723 -0.000395575 0.098837 1.73016e-06 274.324 
-0.47 -0.33 -1.07414 -0.958454 0.0985302 0.0980965 -0.000128526 0.0978503 1.719e-06 273.349 
-0.41 -0.35 0.191721 0.9666 0.0981141 0.097441 -6.58651e-05 0.0978287 1.70891e-06 274.902 
-0.45 -0.33 -0.881453 0.225155 0.0980912 0.097589 -0.000330553 0.0977019 1.71863e-06 272.992 
-0.49 -0.31 0.0702306 0.9256 0.0980261 0.097294 0.000530708 0.0975014 1.71215e-06 273.464 
-0.39 -0.35 -0.282431 2.61317 0.0969744 0.0966833 -0.000120779 0.0970505 1.69612e-06 274.771 
-0.43 -0.33 -1.45962 0.265373 0.0975968 0.0971981 0.000282191 0.0976343 1.7093e-06 274.293 
-0.47 -0.31 -0.306252 -0.343676 0.097114 0.0955811 -0.000400688 0.0964464 1.68755e-06 274.448 
-0.37 -0.35 2.08619 -2.07248 0.0963005 0.0963833 -2.78515e-05 0.0969608 1.70009e-06 273.877 
-0.41 -0.33 -1.1762 2.81161 0.0972395 0.0977727 0.000552531 0.098081 1.70956e-06 275.506 
-0.45 -0.31 0.941343 0.159313 0.0977497 0.0977961 0.000742917 0.0974505 1.70721e-06 274.112 
-0.49 -0.29 -0.0261876 1.02328 0.0973594 0.0975111 0.000152599 0.0972963 1.71474e-06 272.476 
-0.35 -0.35 0.447633 2.84508 0.0971548 0.0969009 0.000486821 0.0973964 1.71702e-06 272.393 
-0.39 -0.33 -0.208531 2.61401 0.0960743 0.0969396 -0.000200555 0.0971949 1.71545e-06 272.08 
-0.43 -0.31 -1.47505 0.790926 0.0975077 0.0983625 0.000664266 0.0982983 1.70945e-06 276.133 
-0.47 -0.29 0.545985 -0.105681 0.0971322 0.0948147 -0.000733697 0.0963387 1.70222e-06 271.779 
-0.37 -0.33 1.18049 0.898846 0.0962571 0.0960561 -0.00033422 0.0961241 1.70953e-06 270.014 
-0.41 -0.31 -0.831045 0.203827 0.0978961 0.0972671 0.00017807 0.0973776 1.70697e-06 273.945 
-0.45 -0.29 -0.0874796 0.444256 0.0967906 0.0960527 -8.81186e-05 0.0963108 1.69559e-06 272.762 
-0.49 -0.27 1.31338 1.98455 0.0980551 0.0972135 -0.00038923 0.0969429 1.69751e-06 274.242 
-0.35 -0.33 0.285003 2.22585 0.0968499 0.0978331 -0.000197086 0.0976176 1.70668e-06 274.668 
-0.39 -0.31 0.074707 1.10594 0.0976852 0.0976819 -2.76661e-06 0.0979236 1.71821e-06 273.678 
-0.43 -0.29 -1.55058 -0.077508 0.0981754 0.0990148 0.000260324 0.0986521 1.72887e-06 274.016 
-0.47 -0.27 -0.316831 2.37964 0.0968661 0.0951307 -0.000159413 0.0963735 1.6976e-06 272.617 
-0.33 -0.33 -0.936624 1.71124 0.0986963 0.0992638 7.24057e-05 0.0990952 1.74422e-06 272.824 
-0.37 -0.31 1.00452 0.992546 0.0976667 0.0966827 -0.00061448 0.0970522 1.70986e-06 272.568 
-0.41 -0.29 -2.07476 -0.617846 0.0982633 0.0972061 -4.02303e-05 0.0983499 1.73543e-06 272.143 
-0.45 -0.27 -0.234082 0.37062 0.096288 0.0959237 -0.00058533 0.096729 1.70188e-06 272.934 
-0.35 -0.31 -0.686899 0.905365 0.0975485 0.09835 -0.000116162 0.0976805 1.70432e-06 275.225 
-0.39 -0.29 -1.94972 0.129819 0.0991146 0.0979742 -0.000497543 0.0987787 1.73273e-06 273.755 
-0.43 -0.27 -0.569336 3.20643 0.096593 0.0974959 0.000247677 0.0974365 1.71596e-06 272.674 
-0.37 -0.29 -0.466642 0.0886583 0.0986391 0.0968801 0.00016178 0.0977961 1.71526e-06 273.793 
-0.41 -0.27 -4.48831 -0.743911 0.0976638 0.097701 -0.000200674 0.09777 1.71644e-06 273.532 
-0.35 -0.29 -0.0177269 1.29556 0.0989592 0.0983579 5.75578e-05 0.0981865 1.71033e-06 275.678 
-0.39 -0.27 -1.1696 -0.616821 0.0980693 0.0975916 -0.000756928 0.0978364 1.72996e-06 271.577 
-0.33 -0.29 0.986931 2.57201 0.0987962 0.0981304 0.000676333 0.0984785 1.73888e-06 271.958 
-0.37 -0.27 0.712404 0.998333 0.0984583 0.0964125 -0.000646497 0.0975151 1.70395e-06 274.817 
-0.35 -0.27 -1.54883 2.66728 0.0992472 0.0967733 -0.000446288 0.0974681 1.70538e-06 274.456 
-0.41 -0.37 0.796401 -2.17613 0.0975628 0.0971308 -0.000320127 0.0976135 1.72176e-06 272.25 
-0.35 -0.37 1.30738 0.172026 0.0977174 0.0963229 -0.000452976 0.0967216 1.71231e-06 271.25 
-0.45 -0.25 0.530795 0.670226 0.097962 0.0956051 -0.000519818 0.0965566 1.70238e-06 272.368 
-0.37 -0.25 -0.647 0.999226 0.0980753 0.0971302 -0.00044928 0.0974068 1.71378e-06 272.939 
-0.35 -0.25 -1.71664 4.13253 0.0979208 0.0971443 -0.000113268 0.097835 1.72014e-06 273.125 
-0.33 -0.49 -1.10855 0.184941 0.0974871 0.0988073 -0.000596509 0.0989986 1.73243e-06 274.413 
-0.31 -0.49 -1.42561 -0.381067 0.0977362 0.0975017 0.000231643 0.0975287 1.70834e-06 274.15 
-0.29 -0.49 -0.739584 -1.98992 0.0963402 0.0957168 2.61676e-05 0.0966245 1.71083e-06 271.213 
-0.33 -0.47 -0.679663 -1.45097 0.0980505 0.0970448 -0.000638763 0.097305 1.71409e-06 272.604 
-0.27 -0.49 0.341174 1.11522 0.0971773 0.0993142 5.32312e-05 0.0984307 1.7388e-06 271.838 
-0.31 -0.47 1.29932 -1.4074 0.0978525 0.0969634 0.000391576 0.0977122 1.71422e-06 273.723 
-0.29 -0.47 0.806948 -0.975687 0.0980818 0.0964332 0.000467273 0.0973906 1.72024e-06 271.868 
-0.27 -0.47 -1.09226 -0.882652 0.0982616 0.0975924 0.00010834 0.0982802 1.72702e-06 273.275 
-0.31 -0.45 -0.398678 -1.90829 0.0978975 0.0972051 -0.000934962 0.0977169 1.73047e-06 271.167 
-0.29 -0.45 0.533799 0.380583 0.0982258 0.0968474 -2.87261e-05 0.0972579 1.70374e-06 274.126 
-0.33 -0.43 1.08499 0.210432 0.0979404 0.0974646 -0.000294658 0.0971385 1.70172e-06 274.116 
-0.27 -0.45 -0.335998 0.497241 0.0981236 0.0973663 0.000248679 0.0974227 1.71612e-06 272.61 
-0.31 -0.43 0.502375 -1.84661 0.0973588 0.0965721 -0.000681982 0.0970598 1.72059e-06 270.889 
-0.29 -0.43 -1.5879 -0.136956 0.0972897 0.0970532 -0.000290035 0.0969361 1.69134e-06 275.222 
-0.27 -0.43 -0.298217 -0.618497 0.0966613 0.0964351 0.00036369 0.0965679 1.69902e-06 272.939 
-0.31 -0.41 -2.12991 -0.0992619 0.0981051 0.0979036 -0.000106981 0.097594 1.72383e-06 271.869 
-0.29 -0.41 -2.2237 0.189512 0.0971764 0.0978964 0.000157262 0.0968619 1.6952e-06 274.387 
-0.27 -0.41 -0.968119 -1.49801 0.0968422 0.0957057 7.16144e-05 0.0960882 1.69611e-06 272.049 
-0.31 -0.39 -0.526708 -0.95498 0.0966256 0.0964792 -0.000420878 0.0959807 1.69429e-06 272.036 
-0.29 -0.39 0.218644 0.285994 0.096483 0.0974326 0.00014829 0.0965745 1.70762e-06 271.583 
-0.33 -0.37 -0.87442 0.70866 0.0973823 0.0980744 -0.000168805 0.0980877 1.72241e-06 273.469 
-0.27 -0.39 -1.59389 1.6291 0.0958163 0.0972629 0.000423106 0.0961842 1.68744e-06 273.72 
-0.31 -0.37 -0.957873 -1.91317 0.0966563 0.0968066 -0.000796875 0.096837 1.71122e-06 271.747 
-0.29 -0.37 -0.796325 -0.850401 0.0978407 0.0979146 -0.000551475 0.097505 1.71585e-06 272.884 
-0.33 -0.35 1.04752 2.40841 0.0981889 0.0979001 -0.000570151 0.0986426 1.73773e-06 272.592 
-0.27 -0.37 0.225298 0.0165296 0.0978941 0.0986453 0.000117908 0.0977718 1.7204e-06 272.906 
-0.31 -0.35 -1.88374 1.52481 0.0978829 0.0970729 -0.00010994 0.0973803 1.7116e-06 273.212 
-0.29 -0.35 -1.24668 -1.23093 0.097648 0.0976023 -0.00031784 0.0974648 1.72242e-06 271.731 
-0.27 -0.35 0.38846 2.51382 0.0959154 0.0974042 0.000362337 0.0967294 1.714e-06 271.005 
-0.31 -0.33 0.287489 1.87636 0.0980162 0.0969979 -0.000359657 0.0973523 1.71503e-06 272.587 
-0.29 -0.33 -0.747622 1.73899 0.0963635 0.097235 0.000418 0.0971493 1.70306e-06 273.93 
-0.33 -0.31 -0.677519 0.151594 0.0970514 0.0982481 2.78421e-05 0.0973916 1.71655e-06 272.455 
-0.27 -0.33 -1.17412 2.03832 0.0962219 0.0967327 -0.000330822 0.0967303 1.70635e-06 272.222 
-0.31 -0.31 -0.810048 1.86355 0.0964628 0.0971416 0.000518965 0.0973072 1.70471e-06 274.109 
-0.29 -0.31 0.682809 1.39966 0.0976386 0.0972769 0.000781876 0.0977001 1.71745e-06 273.176 
-0.27 -0.31 -2.56238 1.17033 0.0992396 0.0972991 -0.000136686 0.0981146 1.71466e-06 274.781 
-0.31 -0.29 0.255334 -0.479911 0.098077 0.0986302 0.00104555 0.0983284 1.72787e-06 273.274 
-0.29 -0.29 -1.45081 2.72938 0.0971111 0.09697 -0.000762719 0.0970633 1.70849e-06 272.818 
-0.27 -0.29 -1.70364 2.88411 0.0970324 0.0973386 3.92702e-05 0.0970323 1.70009e-06 274.079 
-0.31 -0.27 -1.91367 1.60468 0.0966194 0.0971011 0.000511953 0.0970893 1.7034e-06 273.707 
-0.25 -0.29 -3.33891 0.666699 0.0963273 0.0966587 -0.000103462 0.0963296 1.68769e-06 274.093 
-0.29 -0.27 -2.03799 1.8107 0.0959857 0.0983456 4.38331e-06 0.0967156 1.7102e-06 271.569 
-0.27 -0.27 -0.782924 2.95711 0.0964747 0.0973701 -0.00021805 0.0966898 1.71594e-06 270.588 
-0.25 -0.27 -0.673966 1.18336 0.0976901 0.0964819 0.000434361 0.0972181 1.70264e-06 274.191 
-0.33 -0.27 -2.33837 1.44078 0.097558 0.0969946 0.000961606 0.0967304 1.71016e-06 271.617 
-0.25 -0.49 1.85377 -0.868987 0.0973992 0.0969957 -1.43822e-05 0.0970323 1.70577e-06 273.166 
-0.25 -0.47 -2.46735 -1.03575 0.0982079 0.0976487 0.00127287 0.0978747 1.72277e-06 272.818 
-0.25 -0.45 -1.24073 -0.553272 0.0972702 0.0975718 0.000740914 0.0973089 1.70244e-06 274.48 
-0.25 -0.37 -0.310786 0.697137 0.0979603 0.097689 5.02594e-05 0.0976332 1.69752e-06 276.194 
-0.25 -0.35 -0.00757576 0.178947 0.0962901 0.0975619 -7.16849e-05 0.0969483 1.71608e-06 271.289 
-0.25 -0.33 -1.5343 1.31346 0.096718 0.0974343 -0.000153323 0.0971149 1.70722e-06 273.166 
-0.25 -0.25 -3.89044 0.828515 0.0972444 0.0972636 0.000403833 0.0975985 1.71429e-06 273.394 
-0.49 -0.25 2.01758 -0.186761 0.09696 0.0970245 0.000119405 0.0972318 1.70609e-06 273.677 
-0.47 -0.25 0.938262 2.16871 0.0966845 0.0953039 0.000472014 0.0962104 1.6907e-06 273.265 
-0.49 -0.23 -1.19567 1.00008 0.0959449 0.0975129 4.7204e-05 0.0963362 1.70271e-06 271.693 
-0.47 -0.23 -0.3214 3.79987 0.0961786 0.0967487 -0.000291453 0.0966904 1.70024e-06 273.089 
-0.45 -0.23 0.75451 1.23801 0.0966718 0.0948093 -0.000284045 0.0960041 1.68277e-06 273.965 
-0.49 -0.21 -0.121194 1.68657 0.0968186 0.097119 0.000909131 0.0975172 1.70838e-06 274.111 
-0.43 -0.23 0.108382 0.974183 0.0981064 0.0975546 0.000549184 0.0979037 1.71693e-06 273.827 
-0.47 -0.21 -0.434928 3.1964 0.0978722 0.0982277 -3.43508e-05 0.0983328 1.73457e-06 272.231 
-0.41 -0.23 -1.2981 -2.47191 0.0976621 0.0957526 -7.27839e-05 0.0967582 1.70708e-06 272.185 
-0.45 -0.21 1.32959 1.82176 0.0978003 0.0958553 -0.000984146 0.0968571 1.70453e-06 272.87 
-0.49 -0.19 -1.37476 1.69091 0.0979612 0.0974716 -0.000612966 0.0969324 1.68941e-06 275.528 
-0.39 -0.23 -0.675659 0.680973 0.0976897 0.0975077 0.000189211 0.0974902 1.71414e-06 273.114 
-0.43 -0.21 -0.507095 4.19428 0.0982749 0.0969099 -0.000139798 0.0975374 1.71042e-06 273.841 
-0.47 -0.19 -2.0834 -1.00754 0.098823 0.0985468 -0.000106083 0.0981894 1.72648e-06 273.107 
-0.41 -0.21 -3.72517 1.24711 0.097959 0.0958961 0.000815019 0.0971195 1.7093e-06 272.847 
-0.45 -0.19 -3.07476 2.21766 0.0975112 0.0966072 -0.000360352 0.0974677 1.70638e-06 274.294 
-0.49 -0.17 -0.957601 0.777286 0.0966482 0.0969866 -0.000111597 0.0968084 1.69964e-06 273.518 
-0.39 -0.21 -3.71657 1.35719 0.0978994 0.0969926 -0.000411951 0.0978463 1.71379e-06 274.168 
-0.43 -0.19 -2.57664 2.85824 0.0977767 0.0961451 -0.000155058 0.0973302 1.70926e-06 273.445 
-0.47 -0.17 -1.36184 0.161989 0.0964468 0.0977464 -0.000656706 0.0966722 1.70601e-06 272.114 
-0.41 -0.19 -3.23758 0.205167 0.098832 0.0963634 -0.000120456 0.0977974 1.71471e-06 273.885 
-0.45 -0.17 -2.21404 -0.0263628 0.0970748 0.0971265 -0.00028825 0.0965785 1.71365e-06 270.637 
-0.49 -0.15 -0.430484 -0.198859 0.0995845 0.0967672 -0.000535347 0.0978234 1.72622e-06 272.131 
-0.39 -0.19 -2.27774 0.601873 0.0984537 0.0967961 -0.000672985 0.097945 1.73072e-06 271.76 
-0.43 -0.17 0.442241 0.0971631 0.0969343 0.0964209 -9.53309e-05 0.096085 1.69513e-06 272.197 
-0.47 -0.15 -0.637171 0.743509 0.0986275 0.0976192 -0.000524269 0.0977555 1.73017e-06 271.32 
-0.41 -0.17 1.36639 -0.260362 0.097762 0.0965944 0.000362694 0.097842 1.72411e-06 272.515 
-0.45 -0.15 -0.614507 -1.614 0.0969077 0.0974573 -0.000201137 0.09687 1.70716e-06 272.487 
-0.39 -0.17 -1.53884 1.08322 0.0983235 0.0964312 0.000180362 0.0973724 1.72307e-06 271.371 
-0.43 -0.15 -1.04976 -1.06544 0.0979976 0.096606 0.000553455 0.0972639 1.70547e-06 273.865 
-0.41 -0.15 -2.65274 0.622931 0.0971834 0.0971565 -0.000456981 0.0971909 1.7054e-06 273.672 
-0.39 -0.15 -1.94059 2.57667 0.0972917 0.0952122 -7.42387e-05 0.0958224 1.69459e-06 271.539 
-0.43 -0.25 0.547827 1.15596 0.0974711 0.0970987 -0.000206382 0.0980235 1.72014e-06 273.651 
-0.41 -0.25 2.05744 0.613253 0.096471 0.0956731 -0.000378557 0.0961018 1.68839e-06 273.332 
-0.39 -0.25 0.11021 -0.649588 0.0978199 0.0976349 -0.000192907 0.0978516 1.71908e-06 273.34 
-0.37 -0.23 1.36591 1.69107 0.0974234 0.0972531 -0.000192689 0.0976058 1.72908e-06 271.076 
-0.35 -0.23 0.490912 4.9906 0.0977764 0.0970962 0.000659838 0.0980668 1.73112e-06 272.036 
-0.33 -0.23 -1.55661 1.43038 0.0979065 0.0965988 0.000505329 0.097703 1.71672e-06 273.299 
-0.37 -0.21 -3.23484 -0.839246 0.0980857 0.0971093 2.98541e-05 0.0978916 1.71241e-06 274.516 
-0.35 -0.21 -2.9841 5.54235 0.0972269 0.0962989 -0.00023597 0.0966066 1.69498e-06 273.699 
-0.33 -0.21 -0.0146021 0.43986 0.0971544 0.0971021 -0.000126555 0.0969447 1.70876e-06 272.442 
-0.37 -0.19 -1.72033 0.868118 0.0967531 0.0961083 -0.000123979 0.0969941 1.70901e-06 272.54 
-0.35 -0.19 -2.2675 4.04558 0.0961633 0.0967308 0.00042697 0.0964804 1.69998e-06 272.537 
-0.33 -0.19 -2.77077 2.94924 0.0966399 0.0973015 0.000835221 0.0974874 1.71444e-06 273.059 
-0.37 -0.17 -0.260681 3.20456 0.0986404 0.0956957 -0.00013405 0.0971697 1.71064e-06 272.774 
-0.35 -0.17 -3.25163 1.30977 0.0980152 0.0968014 -0.000298885 0.0976133 1.71559e-06 273.228 
-0.33 -0.17 -2.22183 4.65967 0.0973036 0.0972662 0.000221827 0.097563 1.71383e-06 273.369 
-0.37 -0.15 -1.37001 1.28457 0.0970138 0.0967471 0.000357481 0.0970587 1.71757e-06 271.364 
-0.35 -0.15 -2.81142 2.12699 0.0977543 0.0969894 -0.00116232 0.0978902 1.7184e-06 273.556 
-0.33 -0.15 -1.82196 3.15353 0.0971502 0.0978991 -0.000620591 0.0979155 1.71165e-06 274.704 
-0.35 -0.13 -1.3479 3.41268 0.0978528 0.0965208 -0.000476086 0.0969584 1.71231e-06 271.916 
-0.33 -0.13 -2.23777 3.14752 0.0974737 0.0975048 0.000519708 0.097677 1.72227e-06 272.347 
-0.33 -0.09 -1.14087 5.01047 0.0980942 0.096991 0.000481957 0.0979435 1.7282e-06 272.153 
-0.37 -0.13 -2.14547 2.54117 0.0978814 0.0980902 -0.00030057 0.0979073 1.71729e-06 273.78 
-0.37 -0.11 -0.905375 1.66477 0.097756 0.0964362 0.000366364 0.0972773 1.70858e-06 273.404 
-0.35 -0.11 -0.387334 2.37015 0.09803 0.0969019 0.00043691 0.0979188 1.71798e-06 273.703 
-0.33 -0.11 0.253151 5.98337 0.0984092 0.0972879 -0.000102629 0.0977416 1.71607e-06 273.512 
-0.35 -0.09 -0.881186 1.66504 0.0970311 0.0964319 3.38534e-05 0.0969867 1.70918e-06 272.492 
-0.49 -0.13 0.604898 0.0889579 0.097722 0.0965948 1.63242e-05 0.0968285 1.69991e-06 273.532 
-0.47 -0.13 0.0935935 0.534111 0.0976432 0.0958495 2.27773e-05 0.0969793 1.70966e-06 272.395 
-0.45 -0.13 -2.65263 -0.976506 0.0977721 0.0966634 -0.000388777 0.0970174 1.70594e-06 273.096 
-0.49 -0.11 -0.301026 0.123303 0.0970546 0.0973112 0.000466951 0.097221 1.71383e-06 272.41 
-0.43 -0.13 -3.96945 0.583073 0.0983991 0.0972217 -0.000226216 0.0972842 1.71555e-06 272.313 
-0.47 -0.11 -0.390353 2.1774 0.0970513 0.0958098 6.07385e-06 0.0963102 1.68647e-06 274.236 
-0.41 -0.13 -1.57644 3.10015 0.0994346 0.0982697 -0.000122046 0.099136 1.73743e-06 274.003 
-0.45 -0.11 0.544231 2.97492 0.0965637 0.096151 -0.000161455 0.0960799 1.6915e-06 272.767 
-0.49 -0.09 -0.115279 1.934 0.0979622 0.0970714 -0.00061842 0.097498 1.71475e-06 273.039 
-0.39 -0.13 -0.664665 1.70661 0.0981929 0.0970652 -0.000547703 0.0975146 1.71328e-06 273.32 
-0.43 -0.11 -0.0762735 1.81259 0.0969607 0.0972256 -0.000737993 0.0970197 1.71397e-06 271.823 
-0.47 -0.09 -2.41114 1.33845 0.0986549 0.0973435 -0.000209493 0.0976666 1.7074e-06 274.689 
-0.41 -0.11 -3.09086 3.14432 0.0965648 0.0978776 -0.000523067 0.0969779 1.69761e-06 274.324 
-0.45 -0.09 -2.13803 1.64367 0.0977088 0.0967315 -0.000439069 0.0973897 1.71298e-06 273.017 
-0.39 -0.11 -2.36763 3.51444 0.0962862 0.0958729 0.000702729 0.0970036 1.70468e-06 273.259 
-0.43 -0.09 -3.02958 4.39868 0.0981664 0.0967507 -0.00103326 0.0976133 1.71471e-06 273.369 
-0.41 -0.09 -2.58831 4.02016 0.0977516 0.0971793 -8.54918e-05 0.098026 1.71423e-06 274.601 
-0.39 -0.09 -2.5482 3.29103 0.0969308 0.0956461 -0.000177679 0.0968303 1.71495e-06 271.138 
-0.37 -0.09 -1.58935 2.43362 0.0966057 0.0969715 -0.000311049 0.0974655 1.71232e-06 273.335 
-0.35 -0.03 -2.62954 5.21696 0.0993242 0.0967063 -1.85434e-05 0.0979646 1.72084e-06 273.375 
-0.37 -0.07 -2.76171 2.90497 0.0974065 0.0961544 -0.00045475 0.0965728 1.69584e-06 273.463 
-0.41 -0.05 -0.122769 3.50715 0.0979287 0.0962337 3.87165e-05 0.0969113 1.7033e-06 273.221 
-0.45 -0.03 0.525267 3.03358 0.0957722 0.0959647 -0.00027712 0.0961937 1.71364e-06 269.561 
-0.35 -0.07 -1.95588 1.92486 0.0971735 0.0957938 -6.40677e-05 0.0964091 1.69628e-06 272.929 
-0.39 -0.05 0.614088 5.74157 0.0974193 0.0962653 -0.000471142 0.0965532 1.70245e-06 272.348 
-0.43 -0.03 1.14445 3.62637 0.0966424 0.0962493 -0.00102064 0.0968746 1.70665e-06 272.58 
-0.33 -0.07 -0.285138 5.17314 0.0973323 0.0968598 0.000375951 0.0971056 1.715e-06 271.9 
-0.37 -0.05 -0.249273 4.2932 0.0968091 0.0962849 -0.000779686 0.0960479 1.68218e-06 274.186 
-0.41 -0.03 -0.960942 4.45145 0.0966706 0.0964732 -9.84734e-05 0.0966158 1.70588e-06 271.976 
-0.35 -0.05 -4.31401 4.18036 0.0967385 0.0953305 -0.000160644 0.0961676 1.68126e-06 274.678 
-0.39 -0.03 1.01042 2.68188 0.0980015 0.0960197 -0.000519725 0.0969377 1.71266e-06 271.801 
-0.33 -0.05 -1.13966 3.06338 0.0969626 0.0969201 0.000262727 0.0968349 1.70331e-06 273.003 
-0.37 -0.03 -0.391795 4.06439 0.0984534 0.0966072 -0.000304619 0.0972043 1.70291e-06 274.11 
-0.33 -0.03 -1.03346 5.40687 0.0989669 0.0968639 8.20772e-05 0.0975003 1.70184e-06 275.117 
-0.33 -0.01 -3.3607 5.02824 0.0974201 0.0971872 -0.000309945 0.0968714 1.70565e-06 272.732 
-0.49 -0.07 -0.480911 0.975648 0.0986502 0.097974 -0.00099778 0.0981512 1.72205e-06 273.703 
-0.47 -0.07 0.658494 0.23096 0.0974441 0.0962376 -0.000249709 0.0968444 1.69784e-06 273.91 
-0.45 -0.07 0.318325 0.999239 0.0968988 0.0973546 -0.00106853 0.0972763 1.6954e-06 275.527 
-0.49 -0.05 0.218903 3.54125 0.0962975 0.0969551 -0.00105705 0.0966901 1.71064e-06 271.427 
-0.43 -0.07 1.05788 2.12346 0.0972852 0.0951509 -0.000362847 0.0961909 1.6944e-06 272.615 
-0.47 -0.05 0.570919 0.395589 0.0969486 0.0971612 -0.00100928 0.0977157 1.73335e-06 270.713 
-0.41 -0.07 1.71158 3.24763 0.0969622 0.096042 9.64978e-05 0.0965506 1.70094e-06 272.581 
-0.45 -0.05 0.808752 3.34909 0.0965859 0.0970059 -0.000302827 0.097603 1.71524e-06 273.255 
-0.49 -0.03 1.32205 1.14318 0.0974443 0.0959945 -0.000662223 0.0969438 1.7072e-06 272.688 
-0.39 -0.07 -1.15266 4.16041 0.0980827 0.096928 -0.00041736 0.0975967 1.72424e-06 271.811 
-0.43 -0.05 -0.142901 3.27156 0.0959921 0.096081 0.000252812 0.0961663 1.69606e-06 272.278 
-0.47 -0.03 2.34259 0.579812 0.0971077 0.0964798 -0.000867738 0.0971495 1.72264e-06 270.817 
-0.27 -0.07 -2.23434 3.73866 0.0981347 0.0964863 0.000411793 0.0975644 1.72066e-06 272.287 
-0.31 -0.05 -1.37575 3.28425 0.0975971 0.0968092 -0.000114999 0.0969109 1.71298e-06 271.675 
-0.27 -0.09 -1.89418 1.43927 0.0971441 0.0964384 0.00107598 0.0968732 1.70115e-06 273.459 
-0.31 -0.07 1.35982 2.05319 0.0987628 0.0968105 0.000733254 0.0973536 1.70602e-06 274.03 
-0.29 -0.07 -0.306454 4.67445 0.0979834 0.0968093 0.000508926 0.0967533 1.70595e-06 272.351 
-0.25 -0.07 -2.51577 4.14182 0.0973016 0.0970599 0.00038132 0.0970315 1.70775e-06 272.847 
-0.29 -0.05 -2.62982 5.47764 0.0972495 0.0973373 0.000476581 0.0971095 1.72e-06 271.121 
-0.27 -0.05 -2.00243 6.26788 0.0971495 0.0967958 -2.46127e-05 0.0971273 1.71201e-06 272.437 
-0.31 -0.03 -0.518131 3.77675 0.0988012 0.097807 0.000746164 0.0980687 1.71825e-06 274.078 
-0.25 -0.05 -2.39215 4.13234 0.0974767 0.0962169 -0.000133702 0.0967775 1.71711e-06 270.649 
-0.29 -0.03 -1.90164 6.4031 0.0980197 0.0960487 0.000434168 0.0967044 1.69002e-06 274.78 
-0.27 -0.03 -4.55062 5.15289 0.0974031 0.0976823 0.00042015 0.0976194 1.7163e-06 273.133 
-0.31 -0.01 -2.45114 6.42638 0.0982192 0.0980753 -0.000489511 0.0979026 1.7117e-06 274.66 
-0.25 -0.03 -4.21675 4.28435 0.0969427 0.0965888 -0.000943693 0.0977822 1.7318e-06 271.139 
-0.29 -0.01 -4.05502 4.8955 0.0979559 0.0967171 0.000230125 0.0971288 1.70325e-06 273.841 
-0.27 -0.01 -2.43144 4.01615 0.0977957 0.0974607 -0.000253564 0.0978447 1.71882e-06 273.361 
-0.33 -0.25 -2.47134 0.286119 0.0982591 0.0968716 0.000903794 0.0972985 1.72542e-06 270.795 
-0.31 -0.25 -1.70691 0.526442 0.0987685 0.0965843 0.000671425 0.0972931 1.7003e-06 274.781 
-0.29 -0.25 -2.2222 -1.28041 0.0996322 0.0983487 -0.000140335 0.0985034 1.73074e-06 273.306 
-0.27 -0.25 -3.01164 1.36447 0.0996314 0.0973396 0.000115893 0.0981442 1.7271e-06 272.883 
-0.29 -0.11 -0.416444 1.51488 0.0982399 0.0966405 0.000175813 0.09718 1.70321e-06 273.993 
-0.27 -0.11 -1.84901 1.46508 0.0962387 0.0964724 -0.000154164 0.0961186 1.69459e-06 272.379 
-0.31 -0.09 -2.1554 1.87222 0.0980999 0.0975012 -6.48108e-05 0.0978375 1.71423e-06 274.074 
-0.29 -0.09 -0.983185 2.96198 0.0978771 0.0974741 0.000836493 0.0974908 1.7165e-06 272.742 
-0.31 -0.23 -0.830058 1.6165 0.0989671 0.0972121 0.000139522 0.0981036 1.72812e-06 272.61 
-0.29 -0.23 -2.47089 -0.009364 0.09912 0.0979556 -0.000198406 0.0979805 1.731e-06 271.815 
-0.27 -0.23 -1.78851 3.12577 0.097243 0.0961568 0.00109635 0.0968979 1.70769e-06 272.48 
-0.31 -0.21 -2.82852 3.21256 0.0966508 0.0966517 -0.000205157 0.096861 1.7054e-06 272.743 
-0.29 -0.21 -1.50464 2.97152 0.0961045 0.0958682 0.000264735 0.0963122 1.69887e-06 272.24 
-0.27 -0.21 0.0941406 2.9742 0.0962074 0.0964037 0.000519423 0.096947 1.70076e-06 273.73 
-0.31 -0.19 -0.801494 4.97491 0.0966458 0.0978172 0.000525556 0.0974707 1.72156e-06 271.884 
-0.25 -0.21 -0.45476 2.33604 0.0980224 0.0979435 0.000239306 0.0981464 1.72507e-06 273.211 
-0.29 -0.19 0.424256 3.53722 0.0950628 0.0943814 -0.000200443 0.0954658 1.67674e-06 273.409 
-0.27 -0.19 -0.653871 1.41245 0.0967524 0.0969804 -0.000165903 0.0977274 1.70712e-06 274.906 
-0.31 -0.17 -0.979544 4.67085 0.0980794 0.0970626 0.000248048 0.0973879 1.71323e-06 272.973 
-0.25 -0.19 -0.895354 2.8308 0.0968387 0.0974476 -0.000130433 0.0973382 1.70675e-06 273.87 
-0.29 -0.17 -1.60253 4.73525 0.0977857 0.0955008 0.000143813 0.0969728 1.71186e-06 272.026 
-0.27 -0.17 -1.71836 3.5473 0.0962848 0.0971385 -0.00022619 0.0968417 1.70354e-06 272.986 
-0.31 -0.15 -2.40837 3.90001 0.0963159 0.0960084 3.63074e-05 0.0967639 1.70364e-06 272.751 
-0.25 -0.17 -2.47549 1.18723 0.0965251 0.0954192 -6.02285e-06 0.0962958 1.7041e-06 271.358 
-0.29 -0.15 -0.345011 1.41669 0.0972379 0.0970952 0.00015978 0.0975352 1.70322e-06 274.992 
-0.27 -0.15 -0.0910156 3.78978 0.0974385 0.0974401 -0.000199551 0.0973081 1.69856e-06 275.104 
-0.31 -0.13 -3.2677 2.03931 0.0984015 0.0982531 -0.000404779 0.0980319 1.71027e-06 275.253 
-0.25 -0.15 -1.32247 0.353599 0.0972384 0.0949047 3.02335e-05 0.0959111 1.69019e-06 272.498 
-0.29 -0.13 -3.95261 1.77411 0.0978557 0.0962552 -0.00089113 0.0967432 1.705e-06 272.476 
-0.27 -0.13 -1.62857 4.07759 0.0983873 0.0978503 0.000512676 0.0976248 1.71352e-06 273.591 
-0.31 -0.11 -2.03586 2.97983 0.0982453 0.0977798 0.000567711 0.0983785 1.725e-06 273.869 
-0.25 -0.13 -1.98223 2.28281 0.0973015 0.0963308 0.000134099 0.0962995 1.6998e-06 272.054 
-0.25 -0.23 -1.82311 0.652633 0.0977517 0.0981968 0.000562527 0.0980202 1.71679e-06 274.176 
-0.25 -0.11 -1.66006 4.77573 0.0968607 0.0965279 0.00042204 0.096568 1.69605e-06 273.417 
-0.25 -0.09 -2.79797 3.48562 0.0984461 0.0971674 -0.000270909 0.0977882 1.71638e-06 273.591 
-0.25 -0.01 -1.37826 4.97908 0.0972461 0.097706 -4.35953e-05 0.0978563 1.71394e-06 274.173 
-0.23 -0.49 -0.201511 0.95321 0.0964468 0.0965677 7.18758e-05 0.0961884 1.70011e-06 271.691 
-0.21 -0.49 -1.72608 -0.601516 0.0964826 0.097609 0.00103634 0.0972385 1.71285e-06 272.615 
-0.19 -0.49 -1.04198 -0.54473 0.0958403 0.0968611 0.00053626 0.0968224 1.69813e-06 273.8 
-0.23 -0.47 -1.42524 -0.154439 0.0980833 0.0962372 0.00063731 0.097119 1.71085e-06 272.598 
-0.17 -0.49 -0.418874 -0.878289 0.0959563 0.0984489 -0.000753841 0.0972468 1.71561e-06 272.199 
-0.21 -0.47 -1.43143 0.135963 0.0967014 0.0970702 0.000929079 0.0969907 1.7086e-06 272.596 
-0.15 -0.49 -0.065633 0.230758 0.0963428 0.0963052 0.000789575 0.0967672 1.71033e-06 271.693 
-0.19 -0.47 -2.21445 0.131214 0.0968654 0.0977802 0.000910107 0.0976791 1.72947e-06 271.219 
-0.23 -0.45 -3.10157 0.0380454 0.0968888 0.0966188 0.000864316 0.0969595 1.70228e-06 273.52 