ITEM: TIMESTEP
951000
ITEM: NUMBER OF CELLS
2500
ITEM: BOX BOUNDS ss ss pp
-0.5 0.5
-0.5 0.5
-0.5 0.5
ITEM: CELLS xc yc f_U[*] f_V[*] f_Tau[1] f_Tau[2] f_Tau[3] f_Press[*] f_Mrho[*] f_Ttra[*] 
-0.49 -0.49 -0.00524434 -0.00223904 0.0973704 0.0974018 -2.71743e-05 0.0973719 1.7121e-06 273.108 
-0.47 -0.49 -0.00210066 -0.0098466 0.0973823 0.0974457 -1.79788e-05 0.0974541 1.7142e-06 273.004 
-0.45 -0.49 -0.00378178 -0.048595 0.0974128 0.0973413 -2.85812e-05 0.0974725 1.71375e-06 273.127 
-0.49 -0.47 0.0477018 -0.0735665 0.0973058 0.0973652 -3.62434e-05 0.0972973 1.71211e-06 272.898 
-0.43 -0.49 0.021517 0.0584836 0.097459 0.0974003 2.19917e-05 0.0974077 1.71355e-06 272.977 
-0.47 -0.47 0.0808429 0.0824588 0.0973571 0.0973762 4.44242e-05 0.0973546 1.71288e-06 272.936 
-0.41 -0.49 -0.0187059 0.00754972 0.0974525 0.0973941 8.92702e-05 0.0974353 1.71491e-06 272.838 
-0.45 -0.47 -0.11639 0.121058 0.0973144 0.0973899 -6.42501e-06 0.097401 1.71355e-06 272.959 
-0.49 -0.45 -0.00387278 -0.0938841 0.0973521 0.0973487 -1.44492e-05 0.0972872 1.71144e-06 272.976 
-0.39 -0.49 -0.0834217 0.0261031 0.0974278 0.0973439 7.19669e-05 0.0974529 1.71488e-06 272.892 
-0.43 -0.47 -0.121175 -0.0170765 0.0972581 0.0973275 6.27152e-05 0.0973143 1.71197e-06 272.968 
-0.47 -0.45 0.0803993 -0.0714406 0.0972409 0.0973573 -5.42131e-05 0.0972794 1.71049e-06 273.106 
-0.37 -0.49 -0.185997 0.0354152 0.0974203 0.0973208 0.000130185 0.0974235 1.7138e-06 272.982 
-0.41 -0.47 -0.265684 0.107312 0.0973974 0.0974161 2.09545e-05 0.0974396 1.71418e-06 272.967 
-0.45 -0.45 0.153134 0.317776 0.0973716 0.0972873 7.57553e-05 0.0973462 1.71284e-06 272.919 
-0.49 -0.43 -0.0872843 -0.0825347 0.0973731 0.0972226 2.87545e-05 0.0973381 1.71242e-06 272.963 
-0.35 -0.49 -0.278783 0.17013 0.0974488 0.0973865 8.77793e-05 0.0975115 1.71551e-06 272.956 
-0.39 -0.47 -0.284037 0.0546025 0.0975068 0.0973052 0.000116055 0.0974571 1.71245e-06 273.291 
-0.43 -0.45 -0.1025 -0.0204336 0.0974462 0.0975141 -3.02159e-05 0.0975088 1.71581e-06 272.901 
-0.47 -0.43 -0.176126 -0.0728615 0.0975252 0.0974581 -3.633e-05 0.0974982 1.71358e-06 273.226 
-0.37 -0.47 -0.284746 0.182765 0.0974629 0.0973319 6.11771e-05 0.0973604 1.71117e-06 273.224 
-0.41 -0.45 -0.14197 0.347429 0.0973726 0.0973073 2.05604e-06 0.0974062 1.71445e-06 272.829 
-0.45 -0.43 -0.351782 0.480825 0.0974779 0.0973297 2.94091e-05 0.0974499 1.71327e-06 273.14 
-0.49 -0.41 0.0217869 0.0137814 0.0974302 0.0973021 1.52278e-05 0.0973799 1.71367e-06 272.881 
-0.35 -0.47 -0.40523 0.14818 0.0974706 0.0973084 0.000139366 0.0973873 1.7124e-06 273.103 
-0.39 -0.45 -0.260139 0.123316 0.0972761 0.0972301 6.53063e-05 0.0972519 1.71016e-06 273.082 
-0.43 -0.43 -0.494411 0.194505 0.0974944 0.0973968 -2.96598e-05 0.0974762 1.71382e-06 273.126 
-0.47 -0.41 -0.0820833 0.158394 0.0973926 0.0973874 -5.95109e-05 0.0973626 1.71258e-06 273.006 
-0.37 -0.45 -0.331042 0.204062 0.0973757 0.097391 7.46438e-05 0.0973681 1.71215e-06 273.089 
-0.41 -0.43 -0.394011 0.168776 0.0973686 0.0972454 3.80259e-05 0.0973583 1.71347e-06 272.851 
-0.45 -0.41 -0.17347 0.357072 0.0974343 0.0973501 -2.68335e-05 0.0974147 1.71321e-06 273.051 
-0.49 -0.39 -0.145827 0.165695 0.0974925 0.0974296 -2.08328e-05 0.0975101 1.71328e-06 273.307 
-0.35 -0.45 -0.413953 0.209405 0.097346 0.097237 0.000109122 0.0972722 1.71107e-06 272.993 
-0.39 -0.43 -0.192409 0.0973397 0.0973904 0.0972684 7.65958e-05 0.0973431 1.71166e-06 273.097 
-0.43 -0.41 -0.0824313 0.305676 0.0974223 0.0973165 6.40956e-05 0.0973907 1.71115e-06 273.313 
-0.47 -0.39 -0.24568 0.069547 0.0974559 0.0973658 -2.07651e-05 0.097402 1.71263e-06 273.109 
-0.33 -0.45 -0.417094 0.253058 0.0974397 0.097325 0.000115804 0.0973752 1.7143e-06 272.767 
-0.37 -0.43 -0.497054 0.38368 0.097459 0.0973571 7.74477e-05 0.0974111 1.71339e-06 273.012 
-0.41 -0.41 -0.386195 0.205632 0.0974168 0.0972581 6.58612e-05 0.0974277 1.71418e-06 272.932 
-0.45 -0.39 -0.127806 0.458914 0.0975083 0.0972969 -5.89803e-05 0.0973857 1.71244e-06 273.092 
-0.35 -0.43 -0.485474 0.358658 0.0973814 0.097302 9.4483e-05 0.0973514 1.7115e-06 273.146 
-0.39 -0.41 -0.633797 0.320352 0.0974591 0.0972941 -2.296e-06 0.0973859 1.71335e-06 272.948 
-0.43 -0.39 -0.292227 0.461778 0.097549 0.0972824 -1.90737e-05 0.0974141 1.71393e-06 272.935 
-0.37 -0.41 -0.664179 0.487056 0.0974523 0.0972163 5.08413e-05 0.0973306 1.71121e-06 273.135 
-0.41 -0.39 -0.475058 0.470542 0.0976106 0.0973073 5.67047e-05 0.0974488 1.71393e-06 273.032 
-0.35 -0.41 -0.730638 0.303292 0.0975096 0.0973211 7.20225e-05 0.0974547 1.71363e-06 273.096 
-0.39 -0.39 -0.599159 0.326634 0.0975814 0.0974085 3.49297e-05 0.0975073 1.7134e-06 273.281 
-0.33 -0.41 -0.709678 0.347725 0.0975248 0.0973181 5.88318e-05 0.0974081 1.7122e-06 273.194 
-0.37 -0.39 -0.463884 0.392222 0.0974929 0.097113 -1.222e-05 0.0974123 1.71187e-06 273.258 
-0.35 -0.39 -0.446437 0.414043 0.0975235 0.0972874 4.23133e-05 0.097462 1.71167e-06 273.43 
-0.33 -0.39 -0.653289 0.493471 0.0976428 0.0972426 9.29442e-05 0.0974247 1.71315e-06 273.089 
-0.37 -0.37 -0.709916 0.285081 0.097655 0.0971668 4.43302e-05 0.0973645 1.71344e-06 272.873 
-0.49 -0.37 -0.0124174 0.201051 0.097585 0.0974373 -6.96719e-05 0.0975207 1.71444e-06 273.152 
-0.47 -0.37 -0.109793 0.419215 0.0976208 0.0974382 -4.63397e-05 0.0975548 1.71489e-06 273.177 
-0.45 -0.37 -0.370151 0.270855 0.0975644 0.09717 -1.10699e-05 0.0973504 1.7132e-06 272.873 
-0.49 -0.35 -0.121479 0.428052 0.097593 0.0973861 -7.15492e-05 0.0975015 1.71359e-06 273.234 
-0.43 -0.37 -0.305681 0.655268 0.097559 0.0972177 -2.87909e-05 0.097412 1.71444e-06 272.848 
-0.47 -0.35 -0.327443 0.311978 0.0976065 0.0973471 -1.99511e-05 0.0974701 1.71505e-06 272.914 
-0.45 -0.35 -0.160998 0.505183 0.0976799 0.097234 1.84329e-05 0.0974315 1.71251e-06 273.21 
-0.49 -0.33 -0.0450547 0.575457 0.097556 0.0972893 -0.000108554 0.0974853 1.71495e-06 272.971 
-0.39 -0.37 -0.502951 0.446528 0.0976159 0.0974284 1.67228e-05 0.097568 1.71476e-06 273.233 
-0.43 -0.35 -0.401039 0.68958 0.0976558 0.0971679 -2.34974e-05 0.0974366 1.71296e-06 273.153 
-0.47 -0.33 0.108239 0.269747 0.097549 0.0973104 -3.10692e-05 0.0974289 1.71355e-06 273.037 
-0.41 -0.35 -0.408086 0.581572 0.0976332 0.0973467 3.02184e-06 0.0975841 1.71621e-06 273.048 
-0.45 -0.33 -0.0809812 0.61224 0.0975299 0.0972728 -6.49601e-05 0.0973921 1.71237e-06 273.121 
-0.49 -0.31 0.0937868 0.569553 0.0973547 0.0972866 -0.000144881 0.0973325 1.71265e-06 272.911 
-0.39 -0.35 -0.586117 0.663349 0.0976273 0.0972926 -5.21512e-06 0.097538 1.71463e-06 273.17 
-0.43 -0.33 -0.144407 0.849655 0.0975239 0.0970911 -3.29364e-05 0.0973745 1.71348e-06 272.895 
-0.47 -0.31 -0.148613 0.258958 0.09742 0.0972532 -5.39659e-05 0.0973686 1.71128e-06 273.229 
-0.37 -0.35 -0.543627 0.376907 0.097596 0.097235 9.49507e-05 0.0974288 1.71368e-06 273.016 
-0.41 -0.33 -0.339282 0.714125 0.0976212 0.0973416 -1.68744e-05 0.0974819 1.71417e-06 273.086 
-0.45 -0.31 -0.087712 0.681744 0.0974747 0.0972453 1.72022e-06 0.0974449 1.71161e-06 273.391 
-0.49 -0.29 0.0152083 0.504325 0.0974371 0.0972468 -8.95501e-05 0.0973763 1.71317e-06 272.951 
-0.35 -0.35 -0.723005 0.585661 0.0975094 0.0972006 1.98239e-06 0.0973812 1.71374e-06 272.873 
-0.39 -0.33 -0.377052 0.699872 0.0976409 0.0972071 -9.36848e-06 0.0974794 1.71369e-06 273.156 
-0.43 -0.31 -0.0884998 0.871598 0.0975395 0.0972859 -6.91624e-05 0.0974171 1.71196e-06 273.257 
-0.47 -0.29 -0.0742552 0.614126 0.0974403 0.0971593 -0.000141634 0.097341 1.71103e-06 273.193 
-0.37 -0.33 -0.652898 0.651845 0.0977123 0.097236 6.3036e-05 0.097528 1.71476e-06 273.122 
-0.41 -0.31 -0.151068 0.916183 0.0975447 0.0972614 -0.000147429 0.0974188 1.71306e-06 273.086 
-0.45 -0.29 -0.458901 0.666956 0.0975622 0.0972824 -7.38787e-05 0.0975262 1.71342e-06 273.331 
-0.49 -0.27 -0.0353109 0.5733 0.0975635 0.0973596 -6.29403e-05 0.09748 1.7128e-06 273.3 
-0.35 -0.33 -0.935758 0.777046 0.097694 0.0972523 0.000139467 0.0975181 1.71382e-06 273.244 
-0.39 -0.31 -0.445611 0.848345 0.0976322 0.0971831 1.5616e-06 0.0974376 1.71388e-06 273.008 
-0.43 -0.29 -0.47109 0.776649 0.0976689 0.0972803 -0.000130588 0.0975466 1.71254e-06 273.528 
-0.47 -0.27 -0.156769 0.628554 0.0975762 0.097202 -0.00017099 0.0974079 1.71309e-06 273.052 
-0.33 -0.33 -1.19095 0.811057 0.0976451 0.0971594 0.000112736 0.0974447 1.71473e-06 272.894 
-0.37 -0.31 -0.78266 1.10805 0.0974995 0.0970971 3.25607e-05 0.0973454 1.71366e-06 272.785 
-0.41 -0.29 -0.573237 1.13507 0.0976485 0.0972792 -8.08768e-05 0.0975073 1.71462e-06 273.086 
-0.45 -0.27 -0.142363 1.03455 0.0975526 0.0972421 -0.000155314 0.0974213 1.71178e-06 273.297 
-0.35 -0.31 -0.964201 0.96377 0.0975445 0.0972948 0.000118068 0.097467 1.71278e-06 273.267 
-0.39 -0.29 -0.701976 1.09871 0.0974199 0.0969884 -5.76488e-05 0.0972403 1.71112e-06 272.895 
-0.43 -0.27 -0.569038 0.962244 0.097493 0.0971851 -0.000121525 0.097408 1.71365e-06 272.962 
-0.37 -0.29 -0.727749 1.30264 0.0974708 0.0971112 5.42795e-05 0.0972955 1.71118e-06 273.041 
-0.41 -0.27 -0.647948 1.22249 0.0975321 0.0972568 -6.5333e-05 0.0974118 1.71519e-06 272.728 
-0.35 -0.29 -1.08829 1.03485 0.0976091 0.0972518 3.75221e-05 0.0974378 1.71294e-06 273.159 
-0.39 -0.27 -0.672412 1.20438 0.0975985 0.096975 1.36783e-06 0.0973203 1.71191e-06 272.995 
-0.33 -0.29 -1.03826 1.26489 0.097625 0.0970829 0.000102536 0.0972985 1.712e-06 272.918 
-0.37 -0.27 -0.858844 1.43811 0.0976819 0.0971362 -7.97629e-05 0.0974101 1.71377e-06 272.949 
-0.35 -0.27 -1.07839 1.24393 0.0977596 0.0970559 -1.73742e-05 0.0974529 1.71481e-06 272.903 
-0.41 -0.37 -0.339192 0.550623 0.0975459 0.0973098 4.29282e-05 0.097459 1.7147e-06 272.939 
-0.35 -0.37 -0.670273 0.545732 0.0976459 0.0972394 -1.55532e-05 0.0974107 1.71401e-06 272.912 
-0.45 -0.25 -0.398698 1.11845 0.0976767 0.09712 -0.000182312 0.0974299 1.71313e-06 273.106 
-0.37 -0.25 -0.874918 1.50382 0.0976496 0.0970849 -5.15674e-05 0.0973842 1.71402e-06 272.836 
-0.35 -0.25 -0.877221 1.42742 0.0976383 0.0970154 9.15172e-06 0.0973465 1.71399e-06 272.736 
-0.33 -0.49 -0.432899 0.0649338 0.0973624 0.0972586 0.000146076 0.0973579 1.71343e-06 272.857 
-0.31 -0.49 -0.622468 0.0358196 0.0974432 0.0972591 0.000125664 0.0973736 1.71298e-06 272.972 
-0.29 -0.49 -0.707789 0.0247745 0.0974793 0.0973904 0.00017075 0.0974757 1.71636e-06 272.721 
-0.33 -0.47 -0.445414 0.258642 0.0975283 0.097323 0.000166122 0.0974426 1.71597e-06 272.69 
-0.27 -0.49 -0.557079 0.0349408 0.0975014 0.0973809 0.000194418 0.0974349 1.7146e-06 272.886 
-0.31 -0.47 -0.508966 0.123797 0.0974538 0.0972653 0.000127452 0.0973759 1.71336e-06 272.919 
-0.29 -0.47 -0.685799 0.0751654 0.0974648 0.0973088 0.000183187 0.0973685 1.71363e-06 272.856 
-0.27 -0.47 -0.745725 -0.0246428 0.0974578 0.0972532 0.000157606 0.0973926 1.71358e-06 272.93 
-0.31 -0.45 -0.468575 0.421817 0.0975322 0.0973612 0.000147907 0.0974865 1.71408e-06 273.114 
-0.29 -0.45 -0.602091 0.163418 0.097438 0.0973239 0.000121735 0.097372 1.71306e-06 272.956 
-0.33 -0.43 -0.640374 0.199833 0.0974363 0.0972456 8.179e-05 0.0973917 1.7129e-06 273.036 
-0.27 -0.45 -0.841173 -0.0678687 0.0974357 0.0972822 0.000164877 0.0973109 1.71106e-06 273.103 
-0.31 -0.43 -0.592413 0.436407 0.0974546 0.0972505 0.000113615 0.0973474 1.71245e-06 272.983 
-0.29 -0.43 -0.762745 0.510873 0.097508 0.0973338 0.000211121 0.0974197 1.71166e-06 273.313 
-0.27 -0.43 -0.766799 0.00688879 0.0974919 0.0972154 0.000159916 0.0973363 1.70989e-06 273.362 
-0.31 -0.41 -0.760015 0.45383 0.0974366 0.097117 9.45311e-05 0.0972552 1.71114e-06 272.934 
-0.29 -0.41 -0.737192 0.512676 0.0975579 0.0972864 9.24964e-05 0.0973975 1.71106e-06 273.346 
-0.27 -0.41 -0.90111 0.0390918 0.0976101 0.0972738 0.000174034 0.0973773 1.71059e-06 273.365 
-0.31 -0.39 -0.89428 0.444405 0.097739 0.0972253 5.79399e-05 0.0974541 1.7149e-06 272.893 
-0.29 -0.39 -0.823267 0.588267 0.0976191 0.0972191 0.000130838 0.0974373 1.71292e-06 273.161 
-0.33 -0.37 -0.639353 0.626281 0.0975584 0.0972208 2.27583e-05 0.0973933 1.71227e-06 273.141 
-0.27 -0.39 -1.12061 0.376777 0.0975621 0.0972298 0.000193142 0.097416 1.71268e-06 273.139 
-0.31 -0.37 -0.859859 0.62716 0.0974855 0.0971317 0.00012171 0.0973304 1.71158e-06 273.075 
-0.29 -0.37 -1.0271 0.516361 0.0974741 0.0971569 0.00016789 0.097359 1.71127e-06 273.205 
-0.33 -0.35 -0.828113 0.732635 0.0976233 0.0972046 8.76377e-05 0.0974502 1.7141e-06 273.01 
-0.27 -0.37 -1.19046 0.688742 0.0976067 0.0972226 0.000111733 0.0974436 1.71234e-06 273.271 
-0.31 -0.35 -0.992444 0.87959 0.0976134 0.0971126 0.000138248 0.0973938 1.71475e-06 272.748 
-0.29 -0.35 -1.36015 0.732307 0.0976292 0.0972375 0.000115759 0.0974038 1.71346e-06 272.981 
-0.27 -0.35 -1.47383 0.995938 0.0976134 0.0971813 7.74331e-05 0.0973814 1.71421e-06 272.799 
-0.31 -0.33 -1.19481 1.06589 0.0976043 0.0970302 9.20348e-05 0.0973928 1.71404e-06 272.858 
-0.29 -0.33 -1.22612 0.894305 0.097619 0.0971954 9.73371e-05 0.0974523 1.71418e-06 273.002 
-0.33 -0.31 -1.17164 0.956226 0.0976055 0.0971043 9.61953e-05 0.0973354 1.7132e-06 272.83 
-0.27 -0.33 -1.4823 1.17291 0.0976715 0.0972459 8.27065e-05 0.097522 1.71619e-06 272.878 
-0.31 -0.31 -1.20924 1.01847 0.0976211 0.0970925 0.000102416 0.097459 1.71418e-06 273.02 
-0.29 -0.31 -1.42495 1.23499 0.0976913 0.0972136 9.046e-05 0.0975094 1.7151e-06 273.016 
-0.27 -0.31 -1.50985 1.26238 0.0976763 0.0971995 0.000102899 0.0974782 1.71373e-06 273.146 
-0.31 -0.29 -1.36164 1.17008 0.0977041 0.0971365 9.73697e-05 0.0973919 1.71255e-06 273.093 
-0.29 -0.29 -1.37638 1.35079 0.0977064 0.0971346 5.47274e-05 0.0974271 1.71312e-06 273.1 
-0.27 -0.29 -1.66069 1.31993 0.0977609 0.0972157 0.000139495 0.0974983 1.71428e-06 273.114 
-0.31 -0.27 -1.18857 1.29917 0.0977451 0.0971477 6.62834e-06 0.0974344 1.71223e-06 273.263 
-0.25 -0.29 -1.82881 1.31687 0.0976966 0.0972244 0.000207835 0.0974838 1.715e-06 272.96 
-0.29 -0.27 -1.44723 1.56288 0.0977022 0.0971298 7.0446e-05 0.0973814 1.71026e-06 273.429 
-0.27 -0.27 -1.7407 1.58514 0.0976234 0.097036 0.000150432 0.0973244 1.71074e-06 273.192 
-0.25 -0.27 -2.09893 1.72525 0.0977075 0.0972183 0.000179946 0.0974009 1.71313e-06 273.026 
-0.33 -0.27 -1.26501 1.26784 0.0978144 0.0970958 4.74571e-05 0.0973783 1.71266e-06 273.037 
-0.25 -0.49 -0.590027 -0.161893 0.0974628 0.0974552 0.000223663 0.0974985 1.71519e-06 272.971 
-0.25 -0.47 -0.657067 0.0271419 0.0975603 0.0975146 0.000264075 0.0974996 1.71506e-06 272.994 
-0.25 -0.45 -0.912503 0.152734 0.0974254 0.097381 0.000165336 0.0973705 1.71173e-06 273.163 
-0.25 -0.37 -1.44204 0.606406 0.0975511 0.0973038 0.000149651 0.0974422 1.71212e-06 273.302 
-0.25 -0.35 -1.66691 0.681778 0.0977093 0.0973263 0.0001403 0.0975035 1.71517e-06 272.988 
-0.25 -0.33 -1.59698 0.910357 0.0976343 0.0971798 7.56913e-05 0.0974592 1.71451e-06 272.97 
-0.25 -0.25 -2.26379 1.86425 0.0977279 0.0972436 0.000100768 0.097509 1.71481e-06 273.06 
-0.49 -0.25 -0.104231 0.678641 0.0976664 0.0973458 -0.000123835 0.0975413 1.71352e-06 273.358 
-0.47 -0.25 -0.171057 0.690991 0.0976963 0.0972468 -0.000199571 0.0975181 1.71435e-06 273.159 
-0.49 -0.23 -0.0142412 0.573045 0.0974443 0.0972608 -0.000193998 0.0973993 1.71297e-06 273.046 
-0.47 -0.23 -0.0309851 1.10252 0.0974814 0.0972958 -0.000182936 0.0973577 1.71358e-06 272.832 
-0.45 -0.23 -0.285088 1.25085 0.097451 0.0970333 -0.000176858 0.0972786 1.71253e-06 272.777 
-0.49 -0.21 -0.163435 0.827955 0.0976666 0.0973005 -0.000196637 0.0975695 1.71498e-06 273.202 
-0.43 -0.23 -0.480075 1.23706 0.0975583 0.0971941 -0.000144879 0.0973744 1.713e-06 272.972 
-0.47 -0.21 -0.356592 0.952842 0.0975727 0.0972751 -0.000155331 0.0974923 1.71492e-06 272.997 
-0.41 -0.23 -0.706562 1.49146 0.0976406 0.0971544 -5.08869e-05 0.0974197 1.71373e-06 272.982 
-0.45 -0.21 -0.213302 1.41759 0.0975836 0.0970838 -0.000213298 0.0973977 1.71406e-06 272.869 
-0.49 -0.19 -0.015356 1.06773 0.0976055 0.0972333 -0.000222763 0.0974785 1.71569e-06 272.836 
-0.39 -0.23 -0.737396 1.55174 0.0976395 0.0970803 -0.000132665 0.0973994 1.71438e-06 272.822 
-0.43 -0.21 -0.449736 1.55592 0.0976058 0.0971247 -0.000180949 0.0974006 1.71471e-06 272.772 
-0.47 -0.19 -0.354289 1.2034 0.0976749 0.0973308 -0.000161387 0.0975392 1.7165e-06 272.876 
-0.41 -0.21 -0.637662 1.61751 0.0975804 0.0970898 -0.000174314 0.0973556 1.71274e-06 272.961 
-0.45 -0.19 -0.691521 1.50765 0.0976452 0.0971439 -0.000204585 0.0974018 1.71345e-06 272.976 
-0.49 -0.17 -0.236172 1.16614 0.0976029 0.0971774 -0.000198537 0.0974112 1.71248e-06 273.158 
-0.39 -0.21 -0.794565 1.56325 0.0976308 0.0970144 -5.19773e-05 0.097372 1.71087e-06 273.305 
-0.43 -0.19 -0.596756 1.49393 0.0976829 0.0970567 -0.000191251 0.0974391 1.71308e-06 273.14 
-0.47 -0.17 -0.335122 1.43808 0.0976038 0.0972891 -0.000208091 0.0974705 1.71462e-06 272.984 
-0.41 -0.19 -0.558571 1.76054 0.0977359 0.0970226 -0.000154714 0.0973867 1.71265e-06 273.062 
-0.45 -0.17 -0.320188 1.61354 0.097726 0.0971722 -0.000264799 0.0974608 1.71411e-06 273.037 
-0.49 -0.15 0.0061175 1.37065 0.0973814 0.0971922 -0.00025686 0.0972741 1.71308e-06 272.677 
-0.39 -0.19 -0.953625 1.9763 0.0977648 0.0970109 -8.38741e-05 0.0973891 1.71204e-06 273.167 
-0.43 -0.17 -0.408545 1.51107 0.0977372 0.0970528 -0.000150751 0.0974358 1.71353e-06 273.06 
-0.47 -0.15 -0.185263 1.53228 0.097552 0.0973197 -0.000319086 0.0974755 1.71455e-06 273.008 
-0.41 -0.17 -0.673883 1.98986 0.097657 0.0969578 -0.000150222 0.0973207 1.71191e-06 272.994 
-0.45 -0.15 -0.362701 1.58619 0.0974898 0.0971127 -0.000252071 0.0972976 1.71253e-06 272.831 
-0.39 -0.17 -0.809737 2.2504 0.0975685 0.0969274 -5.66539e-05 0.097304 1.71159e-06 272.999 
-0.43 -0.15 -0.464615 1.8959 0.0975055 0.0968957 -0.000159636 0.0972305 1.71083e-06 272.914 
-0.41 -0.15 -0.806498 2.05451 0.0975163 0.0969626 -5.65585e-05 0.0972286 1.71165e-06 272.778 
-0.39 -0.15 -0.951729 2.46171 0.0976402 0.0968674 -0.000119103 0.0973233 1.71249e-06 272.909 
-0.43 -0.25 -0.408154 1.17119 0.0976466 0.0971803 -7.88973e-05 0.0975135 1.71432e-06 273.151 
-0.41 -0.25 -0.547375 1.33911 0.0976357 0.0971675 -7.15174e-05 0.0974541 1.71494e-06 272.886 
-0.39 -0.25 -0.709677 1.43744 0.0976791 0.097051 -7.54918e-05 0.0973482 1.71257e-06 272.967 
-0.37 -0.23 -0.784033 1.66781 0.0975381 0.0969893 -2.29074e-05 0.0973264 1.71374e-06 272.72 
-0.35 -0.23 -1.21253 1.65212 0.097658 0.0971034 -6.62587e-05 0.097386 1.71472e-06 272.73 
-0.33 -0.23 -1.47248 1.57951 0.0975725 0.0969911 -1.35976e-05 0.097253 1.71155e-06 272.862 
-0.37 -0.21 -1.11358 2.07301 0.0977231 0.096988 -6.56743e-05 0.0973854 1.71196e-06 273.168 
-0.35 -0.21 -1.20473 1.91713 0.0976528 0.0971127 -8.9727e-05 0.0973965 1.71429e-06 272.828 
-0.33 -0.21 -1.57483 2.01343 0.0976823 0.0969566 1.58389e-05 0.0973441 1.71223e-06 273.01 
-0.37 -0.19 -1.21083 2.09803 0.0977635 0.0970721 -7.55828e-05 0.0975319 1.71453e-06 273.17 
-0.35 -0.19 -1.41046 2.16928 0.0977009 0.0969812 8.75734e-06 0.0973466 1.71353e-06 272.81 
-0.33 -0.19 -1.5192 2.25807 0.0976268 0.096898 7.70873e-05 0.0973239 1.71008e-06 273.296 
-0.37 -0.17 -1.1239 2.53532 0.0975338 0.0969983 -1.35848e-05 0.0973588 1.71175e-06 273.128 
-0.35 -0.17 -1.65339 2.25288 0.0975499 0.0969095 4.08346e-05 0.0972332 1.7088e-06 273.246 
-0.33 -0.17 -1.74653 2.31904 0.0976405 0.09696 1.36125e-05 0.0973338 1.71106e-06 273.168 
-0.37 -0.15 -1.03158 2.86119 0.0976733 0.0969396 -4.2135e-05 0.0972977 1.71069e-06 273.126 
-0.35 -0.15 -1.20947 2.58243 0.0976298 0.0969624 -5.30498e-06 0.0973153 1.71067e-06 273.178 
-0.33 -0.15 -1.63487 2.52548 0.0976292 0.0969202 2.84575e-05 0.0971894 1.70958e-06 272.999 
-0.35 -0.13 -1.41091 2.94549 0.097669 0.0968708 3.75318e-05 0.0972551 1.71009e-06 273.1 
-0.33 -0.13 -1.81673 2.88755 0.097625 0.0968703 9.18828e-05 0.0972798 1.71105e-06 273.017 
-0.33 -0.09 -1.7984 3.4899 0.0974672 0.0966682 4.69686e-05 0.0970727 1.70927e-06 272.719 
-0.37 -0.13 -1.45741 2.84757 0.0976445 0.0968785 -9.41623e-05 0.0971924 1.70987e-06 272.96 
-0.37 -0.11 -1.47219 2.90952 0.0974409 0.0966913 -0.000103138 0.097054 1.70678e-06 273.065 
-0.35 -0.11 -1.66959 3.0631 0.0974934 0.0968174 -9.24729e-06 0.0971856 1.70882e-06 273.109 
-0.33 -0.11 -1.75299 3.27112 0.0974946 0.0967487 0.000104364 0.0971848 1.71125e-06 272.718 
-0.35 -0.09 -1.54888 3.16079 0.0974318 0.0966961 3.00541e-05 0.0970754 1.70821e-06 272.896 
-0.49 -0.13 0.033148 1.48898 0.0973975 0.0972002 -0.00039753 0.0972782 1.71144e-06 272.951 
-0.47 -0.13 -0.0044312 1.68043 0.0974842 0.0971903 -0.000315092 0.0973352 1.71154e-06 273.094 
-0.45 -0.13 -0.189896 1.67272 0.097515 0.0970356 -0.000171191 0.0972449 1.71156e-06 272.838 
-0.49 -0.11 0.10539 1.35689 0.0975031 0.0971729 -0.000370801 0.0973786 1.71355e-06 272.896 
-0.43 -0.13 -0.621495 2.2283 0.0975128 0.0968727 -0.000244985 0.0971776 1.70925e-06 273.018 
-0.47 -0.11 -0.0901906 1.86915 0.0975256 0.097106 -0.000366747 0.0973948 1.71253e-06 273.104 
-0.41 -0.13 -0.937766 2.43675 0.0975452 0.0969076 -0.000242955 0.0971924 1.70997e-06 272.944 
-0.45 -0.11 -0.504377 2.25129 0.097462 0.0969512 -0.000235005 0.0972089 1.70979e-06 273.019 
-0.49 -0.09 -0.119737 1.42168 0.0974836 0.0972082 -0.00039745 0.0973518 1.71292e-06 272.921 
-0.39 -0.13 -1.31091 2.59189 0.0976275 0.0969186 -0.000132668 0.097319 1.71264e-06 272.874 
-0.43 -0.11 -0.852503 2.40909 0.0974376 0.0968647 -0.000249238 0.0972298 1.7091e-06 273.189 
-0.47 -0.09 -0.32725 2.15011 0.0974351 0.0969616 -0.000369168 0.0972252 1.71111e-06 272.855 
-0.41 -0.11 -0.958992 2.73843 0.0974321 0.0968549 -0.000254668 0.0971973 1.70901e-06 273.111 
-0.45 -0.09 -0.291809 2.38952 0.0974351 0.0968858 -0.00024001 0.0972399 1.71015e-06 273.049 
-0.39 -0.11 -1.23785 2.95641 0.0974566 0.0968538 -0.000157183 0.0971866 1.70914e-06 273.06 
-0.43 -0.09 -0.514637 2.7134 0.0975661 0.0969788 -0.000273015 0.0972418 1.70904e-06 273.231 
-0.41 -0.09 -0.911866 3.0398 0.0974602 0.0967705 -0.000207098 0.0971202 1.70779e-06 273.09 
-0.39 -0.09 -1.02358 2.97822 0.0974909 0.0967706 -0.000168889 0.097121 1.70963e-06 272.799 
-0.37 -0.09 -1.22638 3.36153 0.097482 0.0966599 -9.41646e-05 0.0970644 1.70755e-06 272.972 
-0.35 -0.03 -1.92599 4.09264 0.0974586 0.0965052 -4.78197e-05 0.0969756 1.70611e-06 272.953 
-0.37 -0.07 -1.32792 3.45256 0.0974234 0.0965508 -5.40601e-05 0.097033 1.70761e-06 272.874 
-0.41 -0.05 -0.908728 3.44461 0.0974219 0.0967095 -0.000220063 0.0970823 1.70721e-06 273.075 
-0.45 -0.03 -0.30554 3.19787 0.097348 0.0966801 -0.000369723 0.0970322 1.70727e-06 272.925 
-0.35 -0.07 -1.51601 3.44887 0.0975557 0.0965808 -2.43687e-05 0.0970494 1.70766e-06 272.912 
-0.39 -0.05 -1.02678 3.54006 0.0973582 0.096601 -0.000147513 0.0970385 1.70835e-06 272.77 
-0.43 -0.03 -0.60695 3.32463 0.0974081 0.0967801 -0.00024188 0.0971084 1.70765e-06 273.078 
-0.33 -0.07 -1.75272 3.66487 0.0976032 0.0967054 6.5301e-05 0.0970852 1.70976e-06 272.676 
-0.37 -0.05 -1.4662 3.71623 0.0973794 0.0965121 -9.7339e-05 0.0969547 1.70729e-06 272.704 
-0.41 -0.03 -1.03096 3.54448 0.0974902 0.0966943 -0.000122742 0.097118 1.70714e-06 273.188 
-0.35 -0.05 -1.87689 3.88829 0.0973845 0.0964941 -3.47061e-05 0.0969222 1.70708e-06 272.646 
-0.39 -0.03 -1.41595 3.88248 0.0973764 0.0965464 -0.000103691 0.0969643 1.70676e-06 272.816 
-0.33 -0.05 -2.17601 4.0073 0.0974633 0.0965822 7.40085e-05 0.0970154 1.70845e-06 272.689 
-0.37 -0.03 -1.60662 4.16986 0.0974583 0.0964216 -0.000100613 0.0969611 1.70656e-06 272.839 
-0.33 -0.03 -2.14753 4.1577 0.0974059 0.0965157 3.08091e-05 0.0969679 1.70674e-06 272.829 
-0.33 -0.01 -2.11524 4.23966 0.0973847 0.0964419 -2.33013e-05 0.0969081 1.70483e-06 272.966 
-0.49 -0.07 -0.112889 1.56992 0.0974391 0.0971008 -0.000387042 0.0972519 1.71039e-06 273.045 
-0.47 -0.07 -0.315005 2.28501 0.0974599 0.0968626 -0.000303309 0.0971584 1.70935e-06 272.947 
-0.45 -0.07 -0.537241 2.50381 0.0974421 0.0968873 -0.000291063 0.0971369 1.71001e-06 272.782 
-0.49 -0.05 -0.114597 1.95345 0.0973625 0.0968377 -0.000488776 0.0970827 1.70773e-06 272.993 
-0.43 -0.07 -0.62044 2.91619 0.097462 0.0968872 -0.00031429 0.0971682 1.70913e-06 273.011 
-0.47 -0.05 -0.161676 2.33525 0.0974732 0.0969426 -0.000399377 0.097169 1.71074e-06 272.755 
-0.41 -0.07 -0.800258 3.29039 0.0975501 0.0967439 -0.000186867 0.0971163 1.70864e-06 272.944 
-0.45 -0.05 -0.585679 2.72519 0.0975193 0.0967835 -0.000323228 0.0971707 1.71028e-06 272.834 
-0.49 -0.03 -0.0511434 1.92826 0.0973519 0.0968727 -0.000461329 0.097114 1.70888e-06 272.898 
-0.39 -0.07 -1.10394 3.35003 0.0975286 0.0967248 -0.000192659 0.0971187 1.70794e-06 273.061 
-0.43 -0.05 -0.884784 3.0443 0.0975024 0.0969125 -0.000235318 0.0972429 1.71002e-06 273.079 
-0.47 -0.03 -0.099517 2.56901 0.0973431 0.0968928 -0.000392452 0.0970749 1.70868e-06 272.82 
-0.27 -0.07 -2.78022 3.84274 0.0975677 0.0967797 0.000196185 0.0971564 1.70928e-06 272.953 
-0.31 -0.05 -2.42628 3.7923 0.097511 0.0966718 8.72539e-05 0.0970482 1.70884e-06 272.72 
-0.27 -0.09 -2.51822 3.50299 0.0975976 0.0968764 7.05835e-05 0.0972574 1.70822e-06 273.407 
-0.31 -0.07 -1.95286 3.63703 0.0975452 0.0966475 8.13173e-05 0.0971139 1.71027e-06 272.677 
-0.29 -0.07 -2.32238 3.76971 0.0976104 0.0968665 0.000161955 0.0972462 1.7091e-06 273.235 
-0.25 -0.07 -2.94438 3.54304 0.0974672 0.0969337 0.000164374 0.0972161 1.70958e-06 273.073 
-0.29 -0.05 -2.58976 4.05681 0.0975038 0.096763 9.71356e-05 0.0970868 1.70744e-06 273.052 
-0.27 -0.05 -2.51967 4.07107 0.0975187 0.0967673 0.000146451 0.0971478 1.70898e-06 272.977 
-0.31 -0.03 -2.46166 4.14067 0.0974055 0.0967458 3.30694e-05 0.0970602 1.70973e-06 272.612 
-0.25 -0.05 -2.74851 3.68584 0.0974631 0.0968092 0.000277212 0.0971618 1.7101e-06 272.838 
-0.29 -0.03 -2.59683 4.11658 0.0975257 0.0967141 5.34091e-05 0.0970877 1.70887e-06 272.826 
-0.27 -0.03 -2.89495 4.11386 0.0974981 0.0966551 0.000201098 0.0971573 1.70807e-06 273.148 
-0.31 -0.01 -2.37919 4.61838 0.0974446 0.0967584 6.60049e-06 0.0971155 1.70948e-06 272.806 
-0.25 -0.03 -2.91725 4.00964 0.0975507 0.0968531 0.000228588 0.09722 1.71098e-06 272.86 
-0.29 -0.01 -2.75509 4.42005 0.0973518 0.0966154 0.000117248 0.0970548 1.70687e-06 273.053 
-0.27 -0.01 -2.93893 4.25371 0.0972701 0.0965961 0.000126106 0.0970633 1.70838e-06 272.835 
-0.33 -0.25 -1.08961 1.32562 0.0977374 0.0971073 -2.66828e-05 0.0974169 1.71399e-06 272.933 
-0.31 -0.25 -1.41241 1.63788 0.0977441 0.0971515 2.599e-05 0.0974363 1.71407e-06 272.975 
-0.29 -0.25 -1.82499 1.89504 0.0976981 0.0969739 0.000189445 0.0973717 1.71231e-06 273.074 
-0.27 -0.25 -2.12323 1.96289 0.0976927 0.0970594 0.000177534 0.0974264 1.71419e-06 272.928 
-0.29 -0.11 -2.375 3.24823 0.0975965 0.0967598 0.000111064 0.09718 1.70996e-06 272.912 
-0.27 -0.11 -2.59995 3.23619 0.0975833 0.0969553 0.000198475 0.0972449 1.70881e-06 273.277 
-0.31 -0.09 -2.04255 3.29791 0.0975381 0.0968105 0.000126204 0.0972096 1.70995e-06 272.996 
-0.29 -0.09 -2.1964 3.55396 0.0975243 0.0967659 0.000112001 0.0971794 1.70895e-06 273.07 
-0.31 -0.23 -1.8259 1.95475 0.0975176 0.0971152 8.70454e-05 0.0973828 1.71342e-06 272.929 
-0.29 -0.23 -2.02883 2.1244 0.0976375 0.0969164 5.23637e-05 0.0973431 1.71246e-06 272.971 
-0.27 -0.23 -1.97019 2.03177 0.0977197 0.0970895 0.000138818 0.0974326 1.71239e-06 273.232 
-0.31 -0.21 -1.91424 2.13192 0.0977601 0.0971052 7.02133e-05 0.0973915 1.71336e-06 272.963 
-0.29 -0.21 -1.85498 2.07864 0.0976361 0.096877 5.34963e-05 0.097345 1.71296e-06 272.896 
-0.27 -0.21 -1.83658 2.2034 0.0976426 0.0970451 5.99657e-05 0.09739 1.71215e-06 273.151 
-0.31 -0.19 -1.52098 2.2655 0.0976615 0.0970366 -1.08836e-06 0.0973078 1.71075e-06 273.144 
-0.25 -0.21 -2.09658 2.12985 0.0977409 0.0971792 0.000171786 0.0974239 1.71171e-06 273.316 
-0.29 -0.19 -1.7539 2.18049 0.0976413 0.0969334 4.10857e-05 0.0973012 1.71238e-06 272.866 
-0.27 -0.19 -2.1018 2.30805 0.0975812 0.0969767 0.000113577 0.0973285 1.71134e-06 273.108 
-0.31 -0.17 -1.86703 2.40412 0.0976338 0.0970095 4.7192e-05 0.097316 1.7119e-06 272.984 
-0.25 -0.19 -2.19873 2.33994 0.0974869 0.0969997 0.000203223 0.0972682 1.71266e-06 272.729 
-0.29 -0.17 -2.07675 2.43734 0.0975068 0.0968284 0.000179122 0.0972101 1.70948e-06 273.072 
-0.27 -0.17 -2.34758 2.73809 0.0975012 0.0970276 0.000156491 0.0972928 1.71143e-06 272.993 
-0.31 -0.15 -2.01404 2.61927 0.0975198 0.096872 8.79124e-05 0.0972611 1.71142e-06 272.906 
-0.25 -0.17 -2.71251 2.37501 0.0974995 0.0969218 0.000183174 0.0971912 1.71061e-06 272.838 
-0.29 -0.15 -2.22937 2.72283 0.0975776 0.0968986 0.00014167 0.0972873 1.7117e-06 272.935 
-0.27 -0.15 -2.43083 2.85989 0.0975598 0.096915 0.000212297 0.0972131 1.7113e-06 272.791 
-0.31 -0.13 -2.06115 2.73708 0.0975556 0.0968275 0.000186565 0.097248 1.7102e-06 273.063 
-0.25 -0.15 -2.65905 2.61882 0.0974116 0.0968917 0.000184552 0.0971443 1.70872e-06 273.009 
-0.29 -0.13 -2.27935 3.08351 0.0975553 0.0968243 0.000160721 0.0971993 1.71012e-06 272.94 
-0.27 -0.13 -2.55248 2.9234 0.0975374 0.096876 0.000150199 0.097135 1.70856e-06 273.008 
-0.31 -0.11 -2.05287 2.95502 0.0975387 0.0968079 0.000153278 0.0971734 1.70965e-06 272.941 
-0.25 -0.13 -2.59929 2.85755 0.0976637 0.0969529 0.000219204 0.0973032 1.71162e-06 272.992 
-0.25 -0.23 -2.06769 1.99385 0.0977033 0.0972174 0.000129985 0.0974061 1.71456e-06 272.812 
-0.25 -0.11 -2.81961 3.00725 0.0976052 0.0969328 0.00016518 0.0972233 1.70976e-06 273.065 
-0.25 -0.09 -2.87937 3.16335 0.097628 0.096911 0.000154231 0.0972964 1.70916e-06 273.366 
-0.25 -0.01 -3.27568 4.23442 0.0972869 0.0968064 0.000206975 0.097032 1.70868e-06 272.7 
-0.23 -0.49 -0.44328 0.174095 0.0973337 0.0974336 0.000237945 0.097486 1.71482e-06 272.995 
-0.21 -0.49 -0.681345 -0.0347515 0.0973517 0.0971049 0.000220153 0.0973341 1.71136e-06 273.12 
-0.19 -0.49 -0.798223 0.0737005 0.0974253 0.0974773 0.000251757 0.097446 1.71366e-06 273.068 
-0.23 -0.47 -0.999931 0.062559 0.0974994 0.0974398 0.000303927 0.0974677 1.71667e-06 272.649 
-0.17 -0.49 -0.707564 -0.220919 0.0974564 0.0974441 0.000258842 0.0974636 1.71428e-06 273.018 
-0.21 -0.47 -0.954021 0.162335 0.0974188 0.0971754 0.000245418 0.0973667 1.71186e-06 273.131 
-0.15 -0.49 -0.686943 0.109536 0.0974662 0.0975039 0.000215269 0.0975469 1.7153e-06 273.089 