ITEM: TIMESTEP
835000
ITEM: NUMBER OF CELLS
2500
ITEM: BOX BOUNDS ss ss pp
-0.5 0.5
-0.5 0.5
-0.5 0.5
ITEM: CELLS xc yc f_U[*] f_V[*] f_Tau[1] f_Tau[2] f_Tau[3] f_Press[*] f_Mrho[*] f_Ttra[*] 
-0.49 -0.49 -0.139754 0.0388924 0.0973125 0.0972008 5.77554e-05 0.0972915 1.71136e-06 273.001 
-0.47 -0.49 -0.181216 -0.0962485 0.0972502 0.0974752 -0.000138714 0.0974743 1.71691e-06 272.63 
-0.45 -0.49 0.125143 -0.17627 0.0973905 0.0973918 6.89979e-06 0.0974562 1.71542e-06 272.815 
-0.49 -0.47 -0.101541 0.153583 0.0973631 0.0973514 -0.000162771 0.0973448 1.71525e-06 272.531 
-0.43 -0.49 0.214333 0.168338 0.0975101 0.0974246 0.000140776 0.0973796 1.71399e-06 272.829 
-0.47 -0.47 -0.0953434 -0.147979 0.0974337 0.0974804 1.93151e-05 0.0974945 1.71572e-06 272.876 
-0.41 -0.49 -0.0143905 0.16192 0.0974639 0.0974978 4.37588e-05 0.0974437 1.7156e-06 272.752 
-0.45 -0.47 -0.165346 -0.33963 0.0972678 0.0972406 -1.0782e-05 0.0973816 1.71432e-06 272.782 
-0.49 -0.45 0.0508821 -0.116551 0.0972509 0.097268 -0.000252234 0.09723 1.7113e-06 272.837 
-0.39 -0.49 -0.3063 -0.01898 0.0972715 0.0973449 3.67781e-05 0.0974806 1.71833e-06 272.422 
-0.43 -0.47 -0.201873 0.212202 0.0972325 0.0973781 8.68887e-05 0.0973125 1.71333e-06 272.746 
-0.47 -0.45 0.333549 -0.0834454 0.0972295 0.0973868 -0.00016762 0.0973139 1.71452e-06 272.561 
-0.37 -0.49 -0.441163 0.134181 0.0973038 0.0975099 0.000242342 0.0976242 1.71926e-06 272.676 
-0.41 -0.47 -0.328332 0.279654 0.0972775 0.0975537 -6.91482e-06 0.0974111 1.71111e-06 273.376 
-0.45 -0.45 -0.0609801 0.271618 0.0973629 0.0971662 0.000183146 0.0973638 1.71524e-06 272.586 
-0.49 -0.43 0.0224297 -0.144031 0.0974608 0.0974188 0.00011195 0.0974632 1.7141e-06 273.046 
-0.35 -0.49 -0.760573 0.365773 0.0972892 0.0975441 0.000208089 0.0975998 1.7173e-06 272.918 
-0.39 -0.47 -0.437381 0.311257 0.0973654 0.0972878 0.000165457 0.0974394 1.71353e-06 273.069 
-0.43 -0.45 -0.800054 0.0571671 0.0972878 0.0975227 -4.5064e-05 0.0975371 1.71708e-06 272.778 
-0.47 -0.43 -0.173199 -0.052695 0.0972275 0.0972255 -3.94944e-05 0.0972216 1.71134e-06 272.807 
-0.37 -0.47 -0.400071 0.161211 0.097341 0.0974444 9.06823e-05 0.0975282 1.71487e-06 273.104 
-0.41 -0.45 -0.481048 0.462648 0.0972002 0.097432 0.00014639 0.0973112 1.71279e-06 272.828 
-0.45 -0.43 -0.371027 0.550358 0.0971987 0.0972518 3.83587e-05 0.0974148 1.71561e-06 272.67 
-0.49 -0.41 -0.0100264 -0.00329244 0.0972257 0.0973068 0.000153129 0.0972225 1.71466e-06 272.282 
-0.35 -0.47 -0.346272 0.276539 0.0976198 0.0976266 0.000154737 0.0976318 1.71659e-06 273.122 
-0.39 -0.45 -0.329177 0.272923 0.0973291 0.0973521 -2.97738e-05 0.0973504 1.7124e-06 273.001 
-0.43 -0.43 -0.48257 0.410987 0.0974553 0.0972302 -9.57862e-05 0.097427 1.71371e-06 273.006 
-0.47 -0.41 -0.0369641 0.231243 0.0972804 0.0971996 -2.27885e-05 0.0972495 1.71378e-06 272.497 
-0.37 -0.45 -0.36142 0.0439167 0.0974773 0.0976179 -0.000104859 0.0976285 1.71695e-06 273.055 
-0.41 -0.43 -0.720104 0.2862 0.0977252 0.0975026 -4.45787e-05 0.097657 1.71582e-06 273.314 
-0.45 -0.41 -0.174561 0.460502 0.0974692 0.0974528 -6.53296e-05 0.0976122 1.71747e-06 272.927 
-0.49 -0.39 0.198136 -0.015655 0.0974885 0.0973643 4.14005e-05 0.0974643 1.71581e-06 272.777 
-0.35 -0.45 -0.575056 0.411533 0.0974162 0.0972918 6.96496e-05 0.0974192 1.7157e-06 272.667 
-0.39 -0.43 -0.326854 -0.17872 0.0976821 0.0976146 1.05793e-05 0.0975361 1.71491e-06 273.121 
-0.43 -0.41 -0.302317 0.726911 0.0973254 0.097352 -0.000202286 0.097398 1.71388e-06 272.898 
-0.47 -0.39 -0.0580235 0.00346865 0.097625 0.0973106 -5.89104e-05 0.0974786 1.71479e-06 272.979 
-0.33 -0.45 -0.374412 -0.0572268 0.0976572 0.0975311 0.000192828 0.0974826 1.71859e-06 272.387 
-0.37 -0.43 -0.458632 0.377001 0.0976699 0.0974708 -5.58348e-06 0.0975711 1.7161e-06 273.029 
-0.41 -0.41 -0.495489 0.213011 0.0972169 0.097279 -9.83709e-05 0.0973239 1.71408e-06 272.659 
-0.45 -0.39 -0.147111 0.656823 0.0977628 0.0975145 -0.00019845 0.0976144 1.71969e-06 272.579 
-0.35 -0.43 -0.107876 0.39671 0.0974585 0.097446 0.000114419 0.0975369 1.71418e-06 273.239 
-0.39 -0.41 -0.412299 -0.147217 0.097524 0.0975513 -7.1591e-06 0.0975275 1.71482e-06 273.111 
-0.43 -0.39 0.0467271 0.913122 0.0978034 0.0974427 -0.000126046 0.0977014 1.71905e-06 272.924 
-0.37 -0.41 -0.352576 0.392409 0.0973104 0.0972774 6.13952e-05 0.097253 1.70941e-06 273.204 
-0.41 -0.39 -0.102976 0.158991 0.0977367 0.0972401 -7.02271e-05 0.0975988 1.71584e-06 273.148 
-0.35 -0.41 -0.641846 0.267453 0.0974661 0.0973655 -6.59847e-05 0.0974803 1.71514e-06 272.927 
-0.39 -0.39 -0.589677 0.390355 0.0975416 0.0974692 -1.28768e-05 0.0975151 1.71508e-06 273.034 
-0.33 -0.41 -0.359072 0.0739056 0.0975557 0.0974567 -1.92574e-05 0.0976019 1.71463e-06 273.349 
-0.37 -0.39 -0.53565 0.352538 0.0975312 0.0973755 -4.20252e-05 0.0974574 1.71212e-06 273.345 
-0.35 -0.39 -0.0640337 0.219423 0.0974176 0.097328 5.20782e-05 0.0974636 1.71064e-06 273.599 
-0.33 -0.39 -0.628159 0.33286 0.0973736 0.0974033 6.73635e-05 0.0975427 1.71762e-06 272.707 
-0.37 -0.37 -0.626131 0.437685 0.0975245 0.0973481 2.64957e-05 0.0972959 1.70975e-06 273.271 
-0.49 -0.37 -0.268281 -0.122042 0.0977832 0.097392 2.38067e-05 0.0976223 1.71684e-06 273.054 
-0.47 -0.37 -0.376067 0.306942 0.0977378 0.0974452 -0.000106146 0.0975847 1.7142e-06 273.37 
-0.45 -0.37 -0.219979 0.575823 0.0975685 0.0972244 -0.000190521 0.0974722 1.71641e-06 272.703 
-0.49 -0.35 -0.207756 0.364676 0.0975916 0.097276 -0.000132954 0.0975915 1.71197e-06 273.744 
-0.43 -0.37 -0.173961 0.791015 0.0976244 0.0972998 -9.39694e-05 0.0975765 1.71811e-06 272.725 
-0.47 -0.35 -0.367347 0.314849 0.0976096 0.0974925 -4.69642e-05 0.097568 1.71137e-06 273.775 
-0.45 -0.35 -0.0676716 0.288625 0.0978106 0.0974166 -0.000243317 0.0976129 1.71446e-06 273.407 
-0.49 -0.33 0.00465203 0.479703 0.0976118 0.0971041 -0.000288244 0.0974942 1.71626e-06 272.789 
-0.39 -0.37 -0.158045 0.543288 0.0976125 0.097355 -9.77562e-05 0.0974823 1.71113e-06 273.573 
-0.43 -0.35 -0.0387131 0.58138 0.097776 0.0972492 -0.000110509 0.0975537 1.71538e-06 273.095 
-0.47 -0.33 0.464921 0.219224 0.0978327 0.0975823 -0.000160377 0.0977539 1.71872e-06 273.123 
-0.41 -0.35 -0.0627573 0.398645 0.097578 0.0971545 8.10189e-05 0.0973977 1.71216e-06 273.171 
-0.45 -0.33 0.0287826 0.311412 0.0977046 0.0976011 -9.00545e-05 0.0977332 1.7155e-06 273.578 
-0.49 -0.31 -0.0289332 0.46169 0.0978068 0.0971576 -0.000244012 0.0974727 1.71317e-06 273.219 
-0.39 -0.35 -0.368083 0.820883 0.0977258 0.0972728 -8.53952e-05 0.0976025 1.71534e-06 273.237 
-0.43 -0.33 0.188381 0.726344 0.0974269 0.0969151 -0.000104107 0.0972333 1.71188e-06 272.754 
-0.47 -0.31 -0.25569 0.0773915 0.0977715 0.0972148 -0.000241236 0.0974658 1.71134e-06 273.493 
-0.37 -0.35 -0.208916 0.556142 0.0977439 0.0972398 9.25498e-05 0.0975082 1.71539e-06 272.967 
-0.41 -0.33 -0.0388842 0.598428 0.097538 0.0973859 -0.00010381 0.0974427 1.71296e-06 273.169 
-0.45 -0.31 0.100421 0.368771 0.0978159 0.0974908 1.34686e-05 0.0975962 1.71375e-06 273.474 
-0.49 -0.29 0.0502948 0.381962 0.0974801 0.0973196 -8.15226e-05 0.0974246 1.71264e-06 273.17 
-0.35 -0.35 -0.679184 0.591379 0.0977467 0.0974504 -6.08127e-05 0.0976827 1.71899e-06 272.882 
-0.39 -0.33 -0.0737846 0.692988 0.0975103 0.0971336 -7.18036e-05 0.0974518 1.71151e-06 273.427 
-0.43 -0.31 -0.135338 0.57181 0.0977357 0.0973368 -3.92321e-06 0.097477 1.71242e-06 273.352 
-0.47 -0.29 -0.153011 0.486928 0.0974348 0.0970095 -0.000140523 0.0971829 1.70897e-06 273.077 
-0.37 -0.33 -0.189982 0.996179 0.0975561 0.0972778 -4.55351e-05 0.0974741 1.71309e-06 273.237 
-0.41 -0.31 -0.182202 0.711795 0.0975663 0.0971874 -0.000177328 0.0973207 1.71003e-06 273.295 
-0.45 -0.29 -0.29748 0.386493 0.0974741 0.0975088 2.53742e-05 0.097469 1.71148e-06 273.479 
-0.49 -0.27 -0.0706773 0.63674 0.0974628 0.0973657 -0.000154452 0.0973316 1.70987e-06 273.352 
-0.35 -0.33 -0.691689 0.966379 0.0978628 0.0974391 0.000177908 0.0977198 1.71485e-06 273.644 
-0.39 -0.31 -0.163507 0.848402 0.097673 0.0973041 4.54443e-05 0.097553 1.71215e-06 273.608 
-0.43 -0.29 -0.61226 0.637765 0.0974752 0.097406 0.000130681 0.0974574 1.71122e-06 273.488 
-0.47 -0.27 0.0976936 0.344648 0.0975091 0.0969764 -0.000247798 0.0972699 1.70988e-06 273.176 
-0.33 -0.33 -0.941995 0.792044 0.0978466 0.097416 0.000106813 0.0977143 1.71685e-06 273.311 
-0.37 -0.31 -0.642196 1.58452 0.0975674 0.0971469 -5.23256e-05 0.0974729 1.7152e-06 272.897 
-0.41 -0.29 -0.583973 0.880555 0.0974847 0.0971974 3.17217e-05 0.0973162 1.71304e-06 272.803 
-0.45 -0.27 0.0565076 0.703994 0.0975726 0.0971635 -8.38594e-05 0.0974097 1.71046e-06 273.476 
-0.35 -0.31 -0.750784 1.14196 0.0973577 0.0972971 0.00014971 0.0973544 1.7097e-06 273.443 
-0.39 -0.29 -0.736088 0.773248 0.0973031 0.0971335 -0.000228159 0.0972674 1.71075e-06 273.031 
-0.43 -0.27 -0.265445 0.924539 0.0976185 0.0973684 1.59693e-05 0.0974626 1.71701e-06 272.58 
-0.37 -0.29 -0.337002 1.4814 0.097371 0.0969391 -1.86479e-05 0.0972985 1.71021e-06 273.203 
-0.41 -0.27 -0.347893 0.708607 0.0976722 0.0974374 -8.93683e-05 0.0975084 1.71609e-06 272.856 
-0.35 -0.29 -0.861346 1.21297 0.0977363 0.0974921 -6.03167e-05 0.0976966 1.71687e-06 273.258 
-0.39 -0.27 -0.468332 1.11528 0.0977966 0.0971644 -8.34796e-05 0.097675 1.71667e-06 273.229 
-0.33 -0.29 -0.97338 1.87036 0.0976679 0.0970747 0.000139917 0.0973888 1.71116e-06 273.306 
-0.37 -0.27 -0.863451 1.63805 0.0977441 0.0969566 -0.000175488 0.0975523 1.71556e-06 273.063 
-0.35 -0.27 -1.11383 1.69645 0.0976777 0.0971673 -0.000112135 0.0975942 1.71881e-06 272.664 
-0.41 -0.37 0.0307257 0.247346 0.0976973 0.0972825 -5.46823e-05 0.0974967 1.71381e-06 273.186 
-0.35 -0.37 -0.626264 0.321387 0.0975225 0.0974022 3.22193e-05 0.0975463 1.71359e-06 273.36 
-0.45 -0.25 -0.602464 0.841675 0.097627 0.0969454 -0.000171892 0.0974174 1.714e-06 272.934 
-0.37 -0.25 -1.11596 1.37404 0.0976875 0.0969917 -0.000167186 0.0974336 1.71512e-06 272.799 
-0.35 -0.25 -0.556386 1.64559 0.0976411 0.0968412 -6.79339e-06 0.0973043 1.71512e-06 272.439 
-0.33 -0.49 -1.05927 -0.200629 0.0974166 0.0975218 7.76924e-05 0.0976632 1.71779e-06 273.018 
-0.31 -0.49 -0.834671 0.0636139 0.0973468 0.097463 3.99948e-05 0.0974664 1.71419e-06 273.04 
-0.29 -0.49 -0.874928 -0.229653 0.097425 0.0975202 0.00013716 0.0974929 1.71576e-06 272.865 
-0.33 -0.47 -0.500656 0.17112 0.0973875 0.0973992 0.000118783 0.0974571 1.71578e-06 272.762 
-0.27 -0.49 -0.476606 0.227328 0.097522 0.0974988 0.000185375 0.0974544 1.71612e-06 272.699 
-0.31 -0.47 -0.844514 -0.197193 0.0972679 0.0975338 9.97892e-05 0.0974963 1.71622e-06 272.801 
-0.29 -0.47 -0.557699 -0.00479908 0.0974043 0.0974453 4.11756e-05 0.0973992 1.71292e-06 273.054 
-0.27 -0.47 -0.651258 -0.0579005 0.0974535 0.0972457 -4.3931e-06 0.0972524 1.71187e-06 272.81 
-0.31 -0.45 -0.13594 0.264391 0.0979355 0.0978429 2.63715e-05 0.0978359 1.71875e-06 273.349 
-0.29 -0.45 -0.513619 -0.296127 0.0976685 0.0974564 5.11541e-05 0.0975376 1.71631e-06 272.902 
-0.33 -0.43 -0.231143 -0.107464 0.0974101 0.097477 2.21557e-05 0.0975305 1.71459e-06 273.157 
-0.27 -0.45 -0.584606 -0.00178792 0.097382 0.0972727 0.000101863 0.0971483 1.70754e-06 273.209 
-0.31 -0.43 -0.303488 0.198894 0.0973071 0.097709 0.000121467 0.097391 1.71479e-06 272.733 
-0.29 -0.43 -0.510572 0.301718 0.0974035 0.0973161 0.000133303 0.097254 1.70762e-06 273.493 
-0.27 -0.43 -0.851347 -0.234149 0.0974839 0.0972117 0.000223921 0.097253 1.7078e-06 273.461 
-0.31 -0.41 -0.520991 0.301537 0.0975477 0.0974769 0.000120504 0.0974745 1.7133e-06 273.205 
-0.29 -0.41 -0.745218 0.488955 0.0974662 0.0974336 0.000209259 0.097364 1.70851e-06 273.659 
-0.27 -0.41 -0.923589 -0.183362 0.0972955 0.0970899 0.000222301 0.0970922 1.70771e-06 273.023 
-0.31 -0.39 -0.931692 0.656253 0.0974477 0.0974319 2.33974e-06 0.0974335 1.71632e-06 272.608 
-0.29 -0.39 -1.04855 0.360756 0.097495 0.0974182 0.000149762 0.0974189 1.71391e-06 272.951 
-0.33 -0.37 -0.693923 0.661153 0.0976301 0.0974296 6.0466e-05 0.097603 1.71627e-06 273.091 
-0.27 -0.39 -1.09818 0.297333 0.0976021 0.097267 0.000201887 0.0974186 1.71485e-06 272.801 
-0.31 -0.37 -0.890539 0.673148 0.0975183 0.0974273 3.08922e-05 0.0975486 1.71516e-06 273.116 
-0.29 -0.37 -1.06157 0.542762 0.0974754 0.0971871 0.000116923 0.0973687 1.7109e-06 273.291 
-0.33 -0.35 -0.559338 0.812391 0.0977783 0.097303 -4.9032e-06 0.0975816 1.71751e-06 272.835 
-0.27 -0.37 -1.45371 0.759747 0.0976534 0.097259 7.89904e-05 0.09746 1.71388e-06 273.071 
-0.31 -0.35 -0.765651 1.02372 0.0977243 0.0973529 0.000120501 0.0974496 1.71519e-06 272.833 
-0.29 -0.35 -1.01575 0.833924 0.0976844 0.0972937 0.000104316 0.0974857 1.7165e-06 272.726 
-0.27 -0.35 -1.3074 1.24023 0.0975171 0.0972072 0.000107106 0.0973673 1.71562e-06 272.535 
-0.31 -0.33 -1.00394 1.13219 0.0977618 0.0969991 0.000143994 0.0974289 1.71513e-06 272.786 
-0.29 -0.33 -1.10896 1.16124 0.0975836 0.0973261 0.000208232 0.0975812 1.71425e-06 273.353 
-0.33 -0.31 -1.10518 1.03906 0.0974504 0.0973061 7.10901e-05 0.0974417 1.71095e-06 273.488 
-0.27 -0.33 -1.31797 1.63739 0.0976693 0.0971828 0.000266978 0.0975376 1.7158e-06 272.983 
-0.31 -0.31 -1.19934 0.94744 0.0972976 0.0970424 0.000306562 0.0973084 1.71116e-06 273.081 
-0.29 -0.31 -1.34971 1.58205 0.0976747 0.0974052 8.23682e-05 0.0975737 1.7159e-06 273.068 
-0.27 -0.31 -1.53687 1.49888 0.097846 0.0972532 0.000232066 0.0975976 1.71415e-06 273.414 
-0.31 -0.29 -1.33129 1.08353 0.0978517 0.0971826 0.000205991 0.0975677 1.71596e-06 273.041 
-0.29 -0.29 -1.29506 1.57582 0.0977981 0.0972322 9.8945e-05 0.0975291 1.71585e-06 272.952 
-0.27 -0.29 -1.59258 1.50445 0.0978107 0.0973897 0.000161123 0.0977575 1.71505e-06 273.718 
-0.31 -0.27 -0.840702 1.37231 0.0976276 0.097179 -2.09713e-05 0.0974121 1.71315e-06 273.053 
-0.25 -0.29 -1.60009 1.19198 0.0978023 0.0972157 0.000280206 0.0975711 1.71254e-06 273.597 
-0.29 -0.27 -1.24946 1.68707 0.097732 0.0971697 6.79172e-05 0.0974289 1.71015e-06 273.58 
-0.27 -0.27 -1.54567 1.72495 0.0977049 0.0972571 0.000195267 0.0975568 1.71527e-06 273.121 
-0.25 -0.27 -2.02474 1.78705 0.0976001 0.0971572 0.000151734 0.0972956 1.71022e-06 273.194 
-0.33 -0.27 -1.21386 1.53613 0.0977256 0.0971233 0.00014893 0.0973197 1.71337e-06 272.76 
-0.25 -0.49 -0.661388 -0.102713 0.0974335 0.0976509 0.000167998 0.0976565 1.71851e-06 272.885 
-0.25 -0.47 -0.451318 0.251223 0.0977315 0.0977026 0.000190278 0.0975552 1.71643e-06 272.932 
-0.25 -0.45 -0.593327 0.219873 0.0971174 0.0973966 0.000142928 0.097175 1.70556e-06 273.601 
-0.25 -0.37 -1.63294 0.465087 0.0976319 0.0971835 0.000125354 0.0974643 1.71093e-06 273.555 
-0.25 -0.35 -1.4285 0.217038 0.0976159 0.0971517 8.84668e-05 0.0973433 1.7133e-06 272.837 
-0.25 -0.33 -1.851 0.584107 0.0976041 0.0972156 0.000140589 0.0975137 1.71454e-06 273.117 
-0.25 -0.25 -2.24557 2.09835 0.0977053 0.0972765 0.000137672 0.0975888 1.7151e-06 273.238 
-0.49 -0.25 0.0881225 0.508809 0.0979581 0.0974083 -2.74977e-05 0.0976134 1.71511e-06 273.306 
-0.47 -0.25 -0.321507 0.526476 0.0976672 0.0968653 -8.33244e-05 0.0973121 1.71193e-06 272.967 
-0.49 -0.23 -0.1404 0.638789 0.097313 0.0971401 -0.000120547 0.0971435 1.70707e-06 273.27 
-0.47 -0.23 0.0846635 0.679735 0.0975399 0.0971566 -0.000102827 0.0972879 1.71279e-06 272.763 
-0.45 -0.23 -0.0159474 1.12554 0.0976069 0.0968754 -0.000321052 0.0972976 1.71058e-06 273.143 
-0.49 -0.21 0.0190891 0.699325 0.0975241 0.0970992 -0.000280144 0.0974524 1.71096e-06 273.517 
-0.43 -0.23 -0.468079 0.918622 0.0978373 0.0974593 -0.000219332 0.097583 1.71635e-06 273.022 
-0.47 -0.21 -0.129909 0.706417 0.0975003 0.0971919 -0.000108324 0.097416 1.71354e-06 273.003 
-0.41 -0.23 -0.790527 1.67088 0.0979278 0.0973618 -8.77668e-06 0.0976565 1.71758e-06 273.033 
-0.45 -0.21 -0.220934 0.788473 0.0977131 0.0971249 -0.000268751 0.0975383 1.71618e-06 272.924 
-0.49 -0.19 0.0607059 0.865467 0.0977969 0.096997 -0.000183984 0.0973444 1.71339e-06 272.826 
-0.39 -0.23 -0.75055 1.4253 0.0978335 0.0972458 9.1559e-05 0.0975079 1.71604e-06 272.862 
-0.43 -0.21 -0.581676 1.59323 0.0976445 0.0971582 -0.00019975 0.0975115 1.71719e-06 272.69 
-0.47 -0.19 -0.476232 0.841956 0.0977801 0.0972284 -0.000301711 0.0975668 1.71823e-06 272.679 
-0.41 -0.21 -0.595353 1.50133 0.0975269 0.0972395 -1.29602e-05 0.0973829 1.71309e-06 272.982 
-0.45 -0.19 -1.07232 1.57381 0.0976039 0.0972763 -0.000214259 0.0975275 1.71421e-06 273.208 
-0.49 -0.17 -0.275571 0.984136 0.0975559 0.0969868 -0.000111736 0.0973105 1.71382e-06 272.662 
-0.39 -0.21 -0.316128 1.59439 0.0977276 0.0970571 1.46945e-05 0.0974232 1.70822e-06 273.873 
-0.43 -0.19 -0.925668 1.31494 0.0975297 0.0969403 -0.000268421 0.0974477 1.71023e-06 273.62 
-0.47 -0.17 -0.497884 1.40655 0.097469 0.0971862 -0.000226922 0.0973729 1.7139e-06 272.824 
-0.41 -0.19 -0.748347 1.28618 0.0977456 0.0971141 -0.000127909 0.0974446 1.71406e-06 273 
-0.45 -0.17 -0.438715 1.36866 0.0977067 0.0970378 -0.000236622 0.0974345 1.71342e-06 273.073 
-0.49 -0.15 -0.0258034 1.07649 0.0972938 0.0970687 -0.000237254 0.0971923 1.71503e-06 272.138 
-0.39 -0.19 -1.29333 1.8195 0.0978242 0.0972023 -3.24651e-05 0.0974487 1.70993e-06 273.67 
-0.43 -0.17 -0.539312 1.54316 0.0977428 0.097274 -0.000163438 0.0976166 1.71211e-06 273.793 
-0.47 -0.15 -0.193932 1.47433 0.0976346 0.0973741 -0.000399127 0.0975173 1.71928e-06 272.373 
-0.41 -0.17 -1.05941 1.80574 0.0975343 0.0967707 -0.00028419 0.0971045 1.70895e-06 272.86 
-0.45 -0.15 -0.288312 1.48148 0.0974929 0.0970113 -0.0002328 0.0972789 1.71287e-06 272.724 
-0.39 -0.17 -1.40439 1.91171 0.0974634 0.0970836 -2.91108e-05 0.0972912 1.70612e-06 273.838 
-0.43 -0.15 -0.469149 1.89671 0.0974833 0.0969972 -0.00011614 0.0972347 1.71096e-06 272.905 
-0.41 -0.15 -1.12998 2.24978 0.0975422 0.0968847 -0.00011246 0.0971533 1.7094e-06 272.926 
-0.39 -0.15 -1.32337 2.21443 0.0976868 0.0969055 -0.000161308 0.0973969 1.71141e-06 273.289 
-0.43 -0.25 -0.177041 0.783793 0.0978703 0.0973545 -9.30128e-05 0.0977704 1.71669e-06 273.492 
-0.41 -0.25 -0.627342 1.21348 0.0978441 0.0974608 -6.34587e-05 0.0975438 1.71305e-06 273.439 
-0.39 -0.25 -1.0052 1.50991 0.0978275 0.0972467 -7.57929e-05 0.0975336 1.71497e-06 273.104 
-0.37 -0.23 -0.830853 1.43792 0.0976439 0.0970343 9.45621e-05 0.0974039 1.71265e-06 273.11 
-0.35 -0.23 -1.15822 1.65319 0.0975826 0.0969646 -7.21167e-05 0.0972613 1.71571e-06 272.225 
-0.33 -0.23 -1.53366 1.69889 0.0975098 0.0970026 -1.12505e-05 0.0972494 1.71015e-06 273.076 
-0.37 -0.21 -0.799286 2.03435 0.0980521 0.0971658 1.64916e-05 0.097599 1.71178e-06 273.796 
-0.35 -0.21 -1.52334 2.28646 0.097748 0.0971638 -8.02646e-05 0.0974133 1.7139e-06 272.938 
-0.33 -0.21 -1.3096 1.72148 0.097745 0.0968147 0.000172631 0.0972171 1.71129e-06 272.803 
-0.37 -0.19 -1.28579 2.16005 0.0976428 0.0970831 5.47893e-05 0.0975115 1.71424e-06 273.158 
-0.35 -0.19 -1.30864 2.41145 0.0974977 0.0968597 0.00014652 0.0971386 1.71176e-06 272.508 
-0.33 -0.19 -1.69547 2.14486 0.09753 0.0969091 0.00014873 0.0972156 1.70854e-06 273.237 
-0.37 -0.17 -1.14422 2.48697 0.09756 0.0969868 1.01593e-05 0.0973104 1.712e-06 272.951 
-0.35 -0.17 -1.82689 2.62373 0.0977139 0.0968995 0.000204634 0.0973212 1.71112e-06 273.122 
-0.33 -0.17 -2.19383 2.51662 0.0977831 0.0971176 -2.34495e-05 0.0973859 1.70992e-06 273.496 
-0.37 -0.15 -1.51838 2.70744 0.0976724 0.0968902 -1.56964e-07 0.0973473 1.70905e-06 273.526 
-0.35 -0.15 -1.70199 2.98174 0.0977964 0.0971352 -0.00010367 0.097559 1.71559e-06 273.076 
-0.33 -0.15 -1.98299 2.77854 0.0977719 0.0970134 2.19707e-05 0.0973293 1.71183e-06 273.032 
-0.35 -0.13 -1.5827 3.02508 0.0977741 0.0968243 -2.99194e-05 0.0973054 1.7151e-06 272.444 
-0.33 -0.13 -1.94213 3.25252 0.0976655 0.0968801 0.000181061 0.0973283 1.71455e-06 272.596 
-0.33 -0.09 -1.9019 3.6515 0.0976445 0.096564 2.67961e-05 0.0971436 1.70614e-06 273.419 
-0.37 -0.13 -1.91548 2.82308 0.0976752 0.0971171 -0.000181901 0.0973554 1.71244e-06 273.007 
-0.37 -0.11 -1.80728 2.76527 0.0975162 0.0967967 -0.000147867 0.0971471 1.70964e-06 272.87 
-0.35 -0.11 -1.89827 3.14659 0.0973727 0.0967681 5.61748e-05 0.0971494 1.70846e-06 273.064 
-0.33 -0.11 -1.86059 3.53435 0.0973282 0.0964138 0.000243398 0.0970074 1.70528e-06 273.173 
-0.35 -0.09 -1.56172 3.41396 0.0975195 0.0966729 9.70347e-05 0.0971229 1.70756e-06 273.134 
-0.49 -0.13 -0.00906652 1.18237 0.0975793 0.0971967 -0.00047581 0.0972476 1.70853e-06 273.33 
-0.47 -0.13 -0.103195 1.58383 0.0974895 0.0969279 -0.00030682 0.0971982 1.71208e-06 272.624 
-0.45 -0.13 -0.251947 1.44741 0.0974785 0.0971156 -0.000193645 0.0972339 1.71456e-06 272.331 
-0.49 -0.11 -0.155229 1.18322 0.097416 0.0970981 -0.00037133 0.097264 1.71263e-06 272.721 
-0.43 -0.13 -0.835735 2.45643 0.0974163 0.0968735 -0.000270023 0.0972056 1.70927e-06 273.094 
-0.47 -0.11 -0.153568 1.60356 0.097504 0.0968855 -0.000223707 0.0971405 1.71273e-06 272.359 
-0.41 -0.13 -1.14287 2.88537 0.0975813 0.0970606 -0.000243205 0.0974168 1.71415e-06 272.907 
-0.45 -0.11 -0.931096 2.49512 0.0975183 0.0969984 -0.00030367 0.0972403 1.71235e-06 272.699 
-0.49 -0.09 -0.0838025 1.24486 0.0976374 0.0970339 -0.000283381 0.0973307 1.71635e-06 272.317 
-0.39 -0.13 -1.67871 2.27852 0.097574 0.0968258 -0.000113922 0.0973495 1.71338e-06 272.842 
-0.43 -0.11 -1.24993 2.32938 0.0975256 0.096934 -0.000295284 0.0973821 1.7103e-06 273.425 
-0.47 -0.09 -0.637882 2.30494 0.0975672 0.096997 -0.000391709 0.0972275 1.7115e-06 272.799 
-0.41 -0.11 -1.17268 3.10597 0.0975287 0.0968787 -0.00033378 0.0973433 1.70938e-06 273.462 
-0.45 -0.09 -0.698232 2.29023 0.0976789 0.0970135 -0.000387109 0.0975051 1.71385e-06 273.202 
-0.39 -0.11 -1.30862 3.05524 0.0975266 0.0969631 -9.33382e-05 0.0972843 1.70926e-06 273.315 
-0.43 -0.09 -0.405726 2.6993 0.0978048 0.0970854 -0.00043963 0.0974013 1.70989e-06 273.543 
-0.41 -0.09 -0.915094 3.14657 0.0976076 0.0964814 -0.000233933 0.0970354 1.70627e-06 273.094 
-0.39 -0.09 -1.00953 2.97153 0.097682 0.0969375 -0.000129278 0.09725 1.71048e-06 273.025 
-0.37 -0.09 -1.11807 3.47319 0.0974101 0.0967546 -2.51862e-05 0.0970793 1.70717e-06 273.073 
-0.35 -0.03 -1.9347 4.39677 0.0973742 0.0966102 -8.44519e-05 0.09701 1.70578e-06 273.101 
-0.37 -0.07 -1.40638 3.6411 0.0975196 0.0964926 -6.93619e-05 0.0970912 1.70649e-06 273.217 
-0.41 -0.05 -1.1443 3.68748 0.0973912 0.0964641 -0.000322199 0.0969468 1.70428e-06 273.164 
-0.45 -0.03 -0.111572 2.97482 0.0973255 0.0965942 -0.000323459 0.0969768 1.70687e-06 272.833 
-0.35 -0.07 -1.92862 3.87028 0.0976623 0.0966172 5.46473e-05 0.0972541 1.70835e-06 273.376 
-0.39 -0.05 -1.08491 3.512 0.0976463 0.0967569 -0.000246782 0.0972088 1.71025e-06 272.946 
-0.43 -0.03 -0.606016 3.63622 0.0975573 0.0968375 -0.000261203 0.097243 1.70954e-06 273.156 
-0.33 -0.07 -1.90644 3.79462 0.0975374 0.0965564 4.0812e-05 0.0971476 1.70738e-06 273.232 
-0.37 -0.05 -1.40066 3.92568 0.0973917 0.096491 -9.61008e-05 0.096908 1.70561e-06 272.842 
-0.41 -0.03 -0.938852 3.42524 0.0974119 0.0966484 -0.000320997 0.097098 1.70542e-06 273.406 
-0.35 -0.05 -1.63331 4.18548 0.0972335 0.0962593 -1.67902e-05 0.0967669 1.70639e-06 272.319 
-0.39 -0.03 -1.49365 3.62945 0.0972239 0.0964753 -9.9529e-05 0.0968575 1.70759e-06 272.383 
-0.33 -0.05 -2.28353 4.55565 0.0975604 0.0966778 0.000114991 0.097274 1.7111e-06 272.993 
-0.37 -0.03 -1.26947 4.30546 0.0971084 0.0963131 -5.04392e-06 0.0967593 1.70608e-06 272.347 
-0.33 -0.03 -1.83928 4.51354 0.0973318 0.0964964 4.43954e-06 0.0969249 1.70412e-06 273.128 
-0.33 -0.01 -2.0838 4.38867 0.0974984 0.0963618 -0.000156374 0.0968895 1.70343e-06 273.139 
-0.49 -0.07 -0.177891 1.50583 0.097387 0.0969961 -0.000528721 0.097059 1.7095e-06 272.644 
-0.47 -0.07 -0.332748 2.27368 0.0974961 0.0968485 -0.000424151 0.0972623 1.71037e-06 273.076 
-0.45 -0.07 -0.26887 2.28072 0.0975305 0.0970043 -0.000519 0.0971518 1.71022e-06 272.79 
-0.49 -0.05 -0.303926 2.02433 0.0974743 0.0970055 -0.000535449 0.0970613 1.70742e-06 272.983 
-0.43 -0.07 -0.579429 2.83742 0.097471 0.0968115 -0.00030942 0.0971361 1.70692e-06 273.274 
-0.47 -0.05 -0.172671 2.14564 0.0974856 0.0969662 -0.00046703 0.0973081 1.71332e-06 272.735 
-0.41 -0.07 -0.728821 3.43362 0.0975359 0.0965255 -0.000119635 0.0969725 1.70507e-06 273.109 
-0.45 -0.05 -0.520347 2.54627 0.0973904 0.0967585 -0.000357537 0.0971124 1.70849e-06 272.955 
-0.49 -0.03 0.373438 1.78987 0.0975239 0.0969132 -0.000415663 0.0973279 1.7114e-06 273.096 
-0.39 -0.07 -0.925942 3.50534 0.097562 0.0968822 -0.000277167 0.0971639 1.70815e-06 273.155 
-0.43 -0.05 -0.831266 3.0333 0.0972623 0.0968983 -0.000177235 0.0970626 1.70659e-06 273.12 
-0.47 -0.03 0.453203 2.35438 0.0975339 0.0968993 -0.000479258 0.0971793 1.71176e-06 272.622 
-0.27 -0.07 -2.7676 4.01781 0.0976692 0.096882 0.000152416 0.0973004 1.71028e-06 273.198 
-0.31 -0.05 -2.35563 3.78585 0.0977092 0.096689 6.45143e-05 0.0972021 1.70841e-06 273.222 
-0.27 -0.09 -2.24538 3.55386 0.0978489 0.0970412 0.000285885 0.0974253 1.70977e-06 273.63 
-0.31 -0.07 -2.19542 3.81814 0.0975983 0.0967222 0.000154878 0.0973633 1.70959e-06 273.486 
-0.29 -0.07 -2.8049 3.78237 0.0975319 0.0968855 0.000184017 0.097176 1.7073e-06 273.325 
-0.25 -0.07 -2.74606 3.28082 0.0976616 0.0973483 0.000206039 0.0975792 1.71444e-06 273.316 
-0.29 -0.05 -2.53007 4.24202 0.0977119 0.0968988 0.000193458 0.097176 1.70716e-06 273.348 
-0.27 -0.05 -2.76161 4.05347 0.0975971 0.0969144 0.00014658 0.0972699 1.71073e-06 273.041 
-0.31 -0.03 -2.54444 4.77264 0.097185 0.096771 -5.8363e-06 0.097092 1.71007e-06 272.646 
-0.25 -0.05 -2.86949 3.48063 0.0974889 0.0970517 0.000343311 0.0972765 1.71247e-06 272.781 
-0.29 -0.03 -2.42077 4.10055 0.097387 0.0967413 0.000146828 0.097044 1.70625e-06 273.123 
-0.27 -0.03 -2.58273 4.03698 0.0974512 0.0967604 0.000126389 0.097138 1.70599e-06 273.428 
-0.31 -0.01 -1.8562 4.82315 0.0976525 0.0968495 2.34262e-05 0.0973086 1.71066e-06 273.161 
-0.25 -0.03 -2.93019 4.03688 0.097492 0.0969246 0.00037338 0.0972111 1.71141e-06 272.768 
-0.29 -0.01 -1.9582 4.3053 0.0975054 0.0965396 2.40138e-05 0.0970361 1.70694e-06 272.989 
-0.27 -0.01 -2.45224 4.45363 0.0974133 0.0966279 0.000261109 0.0971499 1.70848e-06 273.062 
-0.33 -0.25 -0.762093 1.54038 0.0977829 0.0971938 1.19238e-05 0.097372 1.71224e-06 273.086 
-0.31 -0.25 -1.30203 1.52872 0.0977222 0.0971539 -3.83552e-05 0.0973297 1.71319e-06 272.817 
-0.29 -0.25 -1.54636 1.92168 0.0975273 0.0970419 0.00018355 0.0973174 1.7142e-06 272.62 
-0.27 -0.25 -1.92466 2.44516 0.0974124 0.0971177 0.000254008 0.0973828 1.71292e-06 273.008 
-0.29 -0.11 -2.49202 3.4186 0.0979354 0.0970656 0.000208053 0.0974906 1.71212e-06 273.438 
-0.27 -0.11 -2.77778 3.21805 0.0975664 0.0970256 0.000181773 0.0972825 1.7079e-06 273.529 
-0.31 -0.09 -2.10007 3.42502 0.0976537 0.0968946 3.94693e-05 0.0973988 1.70711e-06 273.982 
-0.29 -0.09 -1.79902 3.71177 0.0976127 0.0969032 0.000149814 0.0972707 1.70949e-06 273.24 
-0.31 -0.23 -1.70413 2.3206 0.097339 0.0970765 0.000245867 0.0972748 1.71094e-06 273.021 
-0.29 -0.23 -2.46997 2.15486 0.0975089 0.096867 0.000133225 0.0972281 1.71068e-06 272.932 
-0.27 -0.23 -2.17214 2.63705 0.0978602 0.0973675 0.000138571 0.0976025 1.71526e-06 273.25 
-0.31 -0.21 -1.66602 2.52548 0.097741 0.0972085 0.000107476 0.0974176 1.71342e-06 273.025 
-0.29 -0.21 -1.63778 2.57267 0.0977525 0.0967495 -5.9641e-07 0.0973215 1.70978e-06 273.337 
-0.27 -0.21 -1.85605 2.55686 0.0976371 0.097208 0.000107287 0.0975274 1.71349e-06 273.322 
-0.31 -0.19 -1.76185 2.73995 0.0977175 0.0972265 1.06099e-05 0.0974174 1.71368e-06 272.984 
-0.25 -0.21 -2.07849 2.07415 0.0979431 0.0971142 6.23484e-05 0.0974761 1.71273e-06 273.301 
-0.29 -0.19 -1.89637 2.53502 0.097613 0.0968073 8.44708e-05 0.0972779 1.71023e-06 273.143 
-0.27 -0.19 -1.8854 2.36481 0.0975574 0.0971768 0.000107548 0.0975043 1.71051e-06 273.733 
-0.31 -0.17 -2.0735 2.76066 0.0977396 0.097074 1.82459e-05 0.0973442 1.71074e-06 273.248 
-0.25 -0.19 -2.04924 2.69554 0.0973539 0.0970982 0.000129204 0.0972749 1.71378e-06 272.568 
-0.29 -0.17 -2.17448 2.83366 0.0975021 0.096793 0.000226929 0.0972618 1.70732e-06 273.563 
-0.27 -0.17 -2.49985 2.47978 0.0975309 0.0971056 0.000109845 0.0974255 1.70971e-06 273.641 
-0.31 -0.15 -2.43301 2.74257 0.0976351 0.0968288 0.000222483 0.0973003 1.71121e-06 273.05 
-0.25 -0.17 -2.97962 2.74498 0.0976654 0.0971133 0.000136286 0.0973692 1.71203e-06 273.112 
-0.29 -0.15 -2.43977 2.90991 0.0976547 0.0969661 0.000173762 0.0973862 1.71011e-06 273.466 
-0.27 -0.15 -2.79106 2.98632 0.0977534 0.0971398 0.000125349 0.0974821 1.71217e-06 273.407 
-0.31 -0.13 -2.27985 2.9908 0.0975278 0.0968599 0.000397476 0.097343 1.7098e-06 273.395 
-0.25 -0.15 -2.53776 2.58511 0.0975391 0.0970297 0.000234475 0.0972101 1.70756e-06 273.379 
-0.29 -0.13 -2.35901 3.25396 0.097476 0.0971013 9.93328e-05 0.0973913 1.71139e-06 273.276 
-0.27 -0.13 -2.25295 2.86216 0.0974627 0.0969433 0.000106639 0.0971226 1.70415e-06 273.68 
-0.31 -0.11 -1.83901 3.12763 0.0977221 0.0969936 0.000135162 0.0974492 1.71063e-06 273.56 
-0.25 -0.13 -2.63954 3.01406 0.0975703 0.0970228 0.000241976 0.0973167 1.70943e-06 273.38 
-0.25 -0.23 -2.20285 1.98897 0.0975534 0.0971232 0.000129791 0.0973834 1.71248e-06 273.08 
-0.25 -0.11 -3.01764 3.26597 0.0976209 0.0970379 5.91752e-05 0.0973298 1.70923e-06 273.448 
-0.25 -0.09 -2.48986 3.34541 0.0977635 0.0971058 0.00017269 0.0975441 1.70829e-06 274.201 
-0.25 -0.01 -2.87574 4.51241 0.0973336 0.0969284 0.000315908 0.097138 1.71111e-06 272.609 
-0.23 -0.49 -0.622672 0.234522 0.097346 0.0976016 0.000108199 0.0975568 1.71678e-06 272.881 
-0.21 -0.49 -1.01778 -0.182868 0.0972805 0.0969465 0.000171285 0.0972446 1.71258e-06 272.674 
-0.19 -0.49 -0.880192 0.0258983 0.0972032 0.0973392 0.00032399 0.0972594 1.71135e-06 272.911 
-0.23 -0.47 -0.654925 -0.235072 0.0976098 0.0975125 0.000357828 0.0975132 1.7167e-06 272.771 
-0.17 -0.49 -0.607241 -0.306421 0.097095 0.097366 0.000221697 0.0971825 1.70956e-06 272.983 
-0.21 -0.47 -0.488975 0.303564 0.0972417 0.096964 0.000241783 0.0971864 1.71033e-06 272.87 
-0.15 -0.49 -0.418524 0.139561 0.0971976 0.0973877 0.000333178 0.0973154 1.7112e-06 273.093 
-0.19 -0.47 -0.869895 -0.0312564 0.0973601 0.097255 0.000132134 0.097205 1.70976e-06 273.013 