ITEM: TIMESTEP
963000
ITEM: NUMBER OF CELLS
2500
ITEM: BOX BOUNDS ss ss pp
-0.5 0.5
-0.5 0.5
-0.5 0.5
ITEM: CELLS xc yc f_U[*] f_V[*] f_Tau[1] f_Tau[2] f_Tau[3] f_Press[*] f_Mrho[*] f_Ttra[*] 
-0.49 -0.49 0.00587482 -0.0122198 0.09736 0.0974222 -3.24473e-05 0.0973759 1.7121e-06 273.119 
-0.47 -0.49 -0.0205936 0.0205441 0.0973953 0.0974303 -2.77524e-05 0.097448 1.71374e-06 273.06 
-0.45 -0.49 -0.00880722 -0.0582929 0.0974015 0.0973187 -3.37214e-05 0.0974532 1.71362e-06 273.093 
-0.49 -0.47 0.0147077 -0.0362972 0.0973258 0.0973855 -4.92266e-05 0.0973194 1.71276e-06 272.856 
-0.43 -0.49 -0.0393258 0.0785316 0.0974523 0.0974098 1.05002e-06 0.0974195 1.71395e-06 272.947 
-0.47 -0.47 0.0497633 0.0923556 0.0973411 0.0973344 4.79808e-05 0.0973382 1.71232e-06 272.979 
-0.41 -0.49 -0.0831529 -0.0172388 0.0974286 0.0974104 8.19324e-05 0.0974298 1.71454e-06 272.881 
-0.45 -0.47 -0.14117 0.0806244 0.0973225 0.0973726 1.8088e-06 0.0973859 1.71328e-06 272.96 
-0.49 -0.45 -0.0302997 -0.0401027 0.0973885 0.0973607 -1.31389e-05 0.0973032 1.71144e-06 273.021 
-0.39 -0.49 -0.124529 0.00662468 0.0974153 0.097369 6.4245e-05 0.0974719 1.71515e-06 272.902 
-0.43 -0.47 -0.121989 0.0203472 0.0972578 0.0973152 5.09796e-05 0.0973018 1.71155e-06 273 
-0.47 -0.45 0.0379447 -0.0432172 0.0972878 0.0973285 -5.16945e-05 0.0972918 1.71047e-06 273.143 
-0.37 -0.49 -0.218064 0.0490113 0.0974089 0.0973596 0.000140905 0.0974339 1.71427e-06 272.937 
-0.41 -0.47 -0.301788 0.128688 0.0974049 0.0974755 -6.71729e-07 0.0974674 1.71426e-06 273.031 
-0.45 -0.45 0.0368671 0.323515 0.0973837 0.0972773 6.82558e-05 0.0973404 1.71316e-06 272.852 
-0.49 -0.43 -0.0749017 -0.032059 0.0974181 0.0972585 3.81826e-05 0.0973671 1.71285e-06 272.975 
-0.35 -0.49 -0.290718 0.0977648 0.0974142 0.0973494 8.06985e-05 0.0974796 1.71527e-06 272.905 
-0.39 -0.47 -0.354125 0.0358512 0.0974956 0.0973068 0.000104269 0.0974691 1.71271e-06 273.283 
-0.43 -0.45 -0.204811 -0.0280819 0.0974687 0.0975068 -4.27033e-05 0.0975166 1.71526e-06 273.01 
-0.47 -0.43 -0.195643 0.00214623 0.0975333 0.0974213 -2.39344e-05 0.097488 1.71334e-06 273.237 
-0.37 -0.47 -0.325812 0.136244 0.0974571 0.0973651 6.81543e-05 0.0973884 1.712e-06 273.17 
-0.41 -0.45 -0.180624 0.370934 0.0973892 0.0973579 1.99642e-07 0.0974405 1.71457e-06 272.907 
-0.45 -0.43 -0.351866 0.514915 0.0975118 0.097307 2.1793e-05 0.0974502 1.71306e-06 273.175 
-0.49 -0.41 -0.00330295 0.0827603 0.0974413 0.097279 2.71692e-05 0.0973625 1.71353e-06 272.854 
-0.35 -0.47 -0.447732 0.100633 0.0974549 0.0972914 0.000131548 0.0973824 1.71226e-06 273.112 
-0.39 -0.45 -0.297734 0.103046 0.0972795 0.0972208 6.2542e-05 0.0972516 1.71031e-06 273.057 
-0.43 -0.43 -0.500412 0.14785 0.0975487 0.0974315 -1.76359e-05 0.0975091 1.71443e-06 273.121 
-0.47 -0.41 -0.0811624 0.206913 0.0974326 0.0973861 -5.24355e-05 0.0973835 1.71312e-06 272.978 
-0.37 -0.45 -0.404763 0.138032 0.0973732 0.0974092 6.44365e-05 0.0973984 1.71282e-06 273.068 
-0.41 -0.43 -0.394984 0.170064 0.0973781 0.0972814 4.53689e-05 0.0973835 1.71335e-06 272.941 
-0.45 -0.41 -0.137444 0.349823 0.097451 0.0973322 -2.88221e-05 0.0974247 1.71321e-06 273.079 
-0.49 -0.39 -0.143459 0.24148 0.0974851 0.0974027 -3.70758e-05 0.0975018 1.7132e-06 273.297 
-0.35 -0.45 -0.446457 0.158413 0.0973518 0.0972325 0.000105106 0.097294 1.71115e-06 273.042 
-0.39 -0.43 -0.223734 0.120616 0.0973999 0.0973059 7.65837e-05 0.0973664 1.712e-06 273.108 
-0.43 -0.41 -0.0208174 0.256299 0.0974305 0.0973329 6.43705e-05 0.0974189 1.71153e-06 273.33 
-0.47 -0.39 -0.220541 0.0810858 0.0974732 0.097348 -2.66179e-05 0.0974141 1.71249e-06 273.165 
-0.33 -0.45 -0.464014 0.246839 0.0974215 0.0973146 0.000100064 0.0973729 1.71374e-06 272.849 
-0.37 -0.43 -0.530241 0.36193 0.0974843 0.0973798 6.02562e-05 0.0974375 1.71328e-06 273.104 
-0.41 -0.41 -0.345296 0.224575 0.0974722 0.0973237 6.25821e-05 0.097481 1.71476e-06 272.991 
-0.45 -0.39 -0.0773889 0.426298 0.0975411 0.0973171 -4.78731e-05 0.0974101 1.71279e-06 273.105 
-0.35 -0.43 -0.514487 0.271912 0.0973988 0.0972868 7.75994e-05 0.0973549 1.71169e-06 273.125 
-0.39 -0.41 -0.542146 0.320899 0.0975125 0.0973382 -3.79842e-06 0.0974388 1.71415e-06 272.968 
-0.43 -0.39 -0.258915 0.451378 0.0975709 0.0972759 -9.10544e-06 0.0974356 1.71447e-06 272.91 
-0.37 -0.41 -0.612356 0.487705 0.0974824 0.0972475 4.90248e-05 0.0973711 1.71201e-06 273.121 
-0.41 -0.39 -0.438086 0.439435 0.0976217 0.0973635 6.43763e-05 0.0974799 1.71421e-06 273.074 
-0.35 -0.41 -0.692192 0.19843 0.0975292 0.0973037 6.29155e-05 0.0974618 1.71375e-06 273.097 
-0.39 -0.39 -0.558321 0.332144 0.0975779 0.0974563 3.62786e-05 0.0975232 1.71363e-06 273.289 
-0.33 -0.41 -0.688611 0.337388 0.0975289 0.0972871 6.88334e-05 0.0974064 1.71225e-06 273.182 
-0.37 -0.39 -0.391143 0.409663 0.0974743 0.0971178 -1.16966e-05 0.0974162 1.71214e-06 273.227 
-0.35 -0.39 -0.417088 0.34818 0.0975251 0.0972733 4.52397e-05 0.097467 1.71237e-06 273.332 
-0.33 -0.39 -0.665281 0.469608 0.0976646 0.0972381 8.64581e-05 0.097435 1.71311e-06 273.124 
-0.37 -0.37 -0.740593 0.316542 0.097709 0.0972011 5.91281e-05 0.097399 1.71397e-06 272.886 
-0.49 -0.37 0.0267673 0.229372 0.0975779 0.0974147 -7.48657e-05 0.0975224 1.71483e-06 273.095 
-0.47 -0.37 -0.0750827 0.40978 0.0976005 0.0973944 -5.39835e-05 0.097525 1.71434e-06 273.18 
-0.45 -0.37 -0.307465 0.248576 0.0975498 0.097179 -5.3426e-06 0.0973466 1.71311e-06 272.877 
-0.49 -0.35 -0.123589 0.408301 0.0975902 0.0973809 -7.32352e-05 0.0974978 1.71361e-06 273.221 
-0.43 -0.37 -0.2587 0.626689 0.0975754 0.0972521 -3.04433e-05 0.0974513 1.7151e-06 272.852 
-0.47 -0.35 -0.253441 0.308728 0.0975725 0.0972963 -3.10276e-05 0.097427 1.71473e-06 272.844 
-0.45 -0.35 -0.125827 0.476928 0.0976892 0.0972555 -8.67463e-06 0.0974376 1.71247e-06 273.233 
-0.49 -0.33 -0.0475002 0.545924 0.0975535 0.0972954 -9.48274e-05 0.0974972 1.71484e-06 273.023 
-0.39 -0.37 -0.504998 0.471205 0.0976464 0.0974686 3.3607e-05 0.0975923 1.7151e-06 273.247 
-0.43 -0.35 -0.400842 0.646057 0.0976685 0.0971992 -4.44598e-05 0.0974451 1.71303e-06 273.165 
-0.47 -0.33 0.0837441 0.258061 0.0975386 0.0972904 -4.87713e-05 0.097426 1.71367e-06 273.01 
-0.41 -0.35 -0.401843 0.620556 0.0976655 0.0973794 3.63403e-06 0.0976093 1.71692e-06 273.006 
-0.45 -0.33 -0.08577 0.582691 0.0975023 0.0972765 -0.000106274 0.0973773 1.71237e-06 273.081 
-0.49 -0.31 0.101517 0.548371 0.0973626 0.0973021 -0.000137747 0.0973443 1.71253e-06 272.962 
-0.39 -0.35 -0.552323 0.66611 0.0976288 0.0973563 -3.86493e-06 0.0975523 1.71509e-06 273.137 
-0.43 -0.33 -0.130441 0.803195 0.0974983 0.09711 -6.44935e-05 0.0973696 1.71335e-06 272.902 
-0.47 -0.31 -0.110677 0.287672 0.0974338 0.0972728 -5.65678e-05 0.0973789 1.71159e-06 273.209 
-0.37 -0.35 -0.517425 0.394999 0.0976106 0.0972486 0.000107023 0.0974358 1.71383e-06 273.012 
-0.41 -0.33 -0.326997 0.70707 0.0975984 0.0973594 -2.6047e-05 0.0974852 1.71402e-06 273.12 
-0.45 -0.31 -0.100088 0.615342 0.0974862 0.0972632 -4.31479e-05 0.0974669 1.71238e-06 273.331 
-0.49 -0.29 0.0156358 0.478472 0.0974912 0.0972626 -9.21219e-05 0.097398 1.7132e-06 273.006 
-0.35 -0.35 -0.723194 0.544248 0.0975537 0.0972171 1.63879e-05 0.0974031 1.71427e-06 272.85 
-0.39 -0.33 -0.340009 0.708589 0.0976518 0.0972633 -1.50135e-05 0.0974888 1.71422e-06 273.098 
-0.43 -0.31 -0.0801747 0.823858 0.0975412 0.0972626 -0.000112454 0.0974123 1.71235e-06 273.182 
-0.47 -0.29 -0.0729598 0.602548 0.0974786 0.0971898 -0.000160989 0.097361 1.71114e-06 273.23 
-0.37 -0.33 -0.566482 0.664254 0.0977006 0.0972623 5.56579e-05 0.0975189 1.71503e-06 273.053 
-0.41 -0.31 -0.132506 0.907368 0.0975462 0.0972761 -0.000158941 0.0974268 1.71303e-06 273.114 
-0.45 -0.29 -0.397335 0.662766 0.0975909 0.0972822 -0.000102511 0.0975366 1.71376e-06 273.306 
-0.49 -0.27 -0.00133491 0.574167 0.0975558 0.0973744 -7.5482e-05 0.097486 1.7133e-06 273.237 
-0.35 -0.33 -0.897239 0.767844 0.0977067 0.0972606 0.000153745 0.0975212 1.71421e-06 273.19 
-0.39 -0.31 -0.394344 0.801059 0.0976258 0.0972012 -1.1966e-05 0.0974333 1.71393e-06 272.989 
-0.43 -0.29 -0.467716 0.736756 0.097675 0.09726 -0.000136727 0.0975317 1.7131e-06 273.396 
-0.47 -0.27 -0.165354 0.612689 0.0975815 0.0972451 -0.000176894 0.097426 1.71339e-06 273.054 
-0.33 -0.33 -1.16093 0.803423 0.0976687 0.0971654 0.000100075 0.0974662 1.71519e-06 272.881 
-0.37 -0.31 -0.727829 1.09806 0.0975113 0.0971384 5.06672e-05 0.0973611 1.71367e-06 272.828 
-0.41 -0.29 -0.582998 1.09195 0.0976419 0.0972938 -7.26814e-05 0.0974854 1.71453e-06 273.039 
-0.45 -0.27 -0.146511 0.984493 0.0975458 0.0972321 -0.000155381 0.0974028 1.71146e-06 273.298 
-0.35 -0.31 -0.949518 0.984969 0.0975251 0.0973019 0.000109563 0.0974613 1.71312e-06 273.197 
-0.39 -0.29 -0.712046 1.05381 0.0974181 0.0969823 -5.06091e-05 0.0972157 1.71111e-06 272.828 
-0.43 -0.27 -0.557876 0.957573 0.0974933 0.0971747 -0.000114102 0.0973956 1.71362e-06 272.932 
-0.37 -0.29 -0.788545 1.30805 0.0974908 0.0971406 6.10943e-05 0.0973179 1.71188e-06 272.992 
-0.41 -0.27 -0.652617 1.1895 0.0975377 0.0972428 -6.78648e-05 0.097398 1.71505e-06 272.712 
-0.35 -0.29 -1.1295 1.09139 0.0976214 0.097286 4.2157e-05 0.0974654 1.71374e-06 273.108 
-0.39 -0.27 -0.697605 1.18956 0.0976005 0.0969851 6.57566e-06 0.0973178 1.712e-06 272.972 
-0.33 -0.29 -1.08759 1.28248 0.0976365 0.0971034 0.000103067 0.0973211 1.71241e-06 272.916 
-0.37 -0.27 -0.914303 1.44397 0.0976886 0.097142 -0.000103603 0.0974138 1.71407e-06 272.911 
-0.35 -0.27 -1.10147 1.26503 0.0977631 0.0970588 -1.20929e-05 0.097451 1.71492e-06 272.88 
-0.41 -0.37 -0.300869 0.574083 0.0975848 0.0973544 3.48375e-05 0.0974871 1.71524e-06 272.931 
-0.35 -0.37 -0.676809 0.495197 0.0976507 0.0972202 -1.96294e-05 0.0974262 1.71429e-06 272.912 
-0.45 -0.25 -0.426306 1.10771 0.0976833 0.0970974 -0.00017143 0.0974168 1.71312e-06 273.071 
-0.37 -0.25 -0.866237 1.53979 0.0976904 0.0970931 -3.22409e-05 0.0973829 1.71406e-06 272.827 
-0.35 -0.25 -0.917235 1.41595 0.0976353 0.0970077 3.49161e-06 0.0973164 1.71364e-06 272.708 
-0.33 -0.49 -0.418921 0.0412856 0.0973617 0.0972325 0.000125462 0.0973513 1.71276e-06 272.945 
-0.31 -0.49 -0.606142 0.0541789 0.0974623 0.0972747 0.00012132 0.0973911 1.71308e-06 273.006 
-0.29 -0.49 -0.742307 0.0531171 0.0974786 0.0974109 0.000159756 0.0974825 1.71641e-06 272.732 
-0.33 -0.47 -0.486031 0.206665 0.0975141 0.0972973 0.000137996 0.0974436 1.71538e-06 272.787 
-0.27 -0.49 -0.617119 0.0302208 0.0974403 0.0973346 0.000188478 0.0973835 1.71409e-06 272.824 
-0.31 -0.47 -0.532947 0.155838 0.0974453 0.0972738 0.000106806 0.0973735 1.71296e-06 272.976 
-0.29 -0.47 -0.70515 0.140905 0.0974577 0.0973314 0.000194576 0.0973752 1.71347e-06 272.9 
-0.27 -0.47 -0.81435 -0.0124791 0.0974782 0.0972563 0.000153124 0.0973851 1.71333e-06 272.949 
-0.31 -0.45 -0.531809 0.355583 0.0975246 0.0973637 0.00013094 0.0974739 1.71373e-06 273.134 
-0.29 -0.45 -0.629062 0.257064 0.0974241 0.0973055 0.000111648 0.0973622 1.71307e-06 272.927 
-0.33 -0.43 -0.624238 0.220019 0.097448 0.0972316 9.25376e-05 0.0973875 1.71246e-06 273.094 
-0.27 -0.45 -0.827887 -0.0410621 0.097429 0.0972646 0.000152923 0.0972945 1.7112e-06 273.035 
-0.31 -0.43 -0.606949 0.382619 0.0974493 0.0972682 0.000121013 0.0973622 1.71254e-06 273.011 
-0.29 -0.43 -0.762777 0.478649 0.0975013 0.0973114 0.000197474 0.097413 1.71154e-06 273.313 
-0.27 -0.43 -0.785188 0.0656013 0.0974866 0.0972042 0.000141118 0.0973118 1.71021e-06 273.242 
-0.31 -0.41 -0.731655 0.459614 0.0974673 0.0971632 8.959e-05 0.0972952 1.71161e-06 272.971 
-0.29 -0.41 -0.753209 0.473722 0.0975912 0.0972822 7.44515e-05 0.0974169 1.71166e-06 273.305 
-0.27 -0.41 -0.909606 0.133687 0.0976279 0.0972362 0.000165974 0.0973795 1.7112e-06 273.273 
-0.31 -0.39 -0.892561 0.468541 0.0977799 0.0972714 5.07019e-05 0.0974964 1.71525e-06 272.955 
-0.29 -0.39 -0.823861 0.556074 0.0976231 0.0972209 0.000150401 0.0974339 1.71323e-06 273.102 
-0.33 -0.37 -0.679956 0.64471 0.0975591 0.097214 2.11376e-05 0.0974175 1.71254e-06 273.166 
-0.27 -0.39 -1.10843 0.454913 0.0975508 0.0972089 0.000189389 0.0974151 1.71315e-06 273.062 
-0.31 -0.37 -0.877274 0.583486 0.0974615 0.0971548 0.000116824 0.0973249 1.7118e-06 273.025 
-0.29 -0.37 -1.00696 0.514521 0.0974746 0.0971516 0.00017592 0.0973367 1.71162e-06 273.085 
-0.33 -0.35 -0.830377 0.780148 0.0976292 0.0971843 8.75813e-05 0.0974685 1.71408e-06 273.063 
-0.27 -0.37 -1.19889 0.737723 0.0976328 0.0972304 9.64389e-05 0.0974675 1.7132e-06 273.201 
-0.31 -0.35 -1.04808 0.801037 0.0976578 0.0971256 0.000128443 0.0974142 1.71506e-06 272.755 
-0.29 -0.35 -1.42168 0.760336 0.0976734 0.0972452 0.000111354 0.097427 1.7139e-06 272.976 
-0.27 -0.35 -1.45141 1.0329 0.0976172 0.0971955 8.29312e-05 0.0973845 1.71441e-06 272.775 
-0.31 -0.33 -1.11246 1.04993 0.0976132 0.0970553 8.12681e-05 0.0973975 1.71414e-06 272.855 
-0.29 -0.33 -1.21459 0.866628 0.0976492 0.09718 7.8525e-05 0.097445 1.71407e-06 273 
-0.33 -0.31 -1.17473 0.984795 0.0975882 0.0971227 9.67164e-05 0.0973379 1.71345e-06 272.797 
-0.27 -0.33 -1.51481 1.2108 0.0977095 0.0972473 0.000112935 0.0975353 1.71641e-06 272.879 
-0.31 -0.31 -1.297 0.984848 0.0976005 0.097114 0.000100802 0.0974354 1.71425e-06 272.943 
-0.29 -0.31 -1.4538 1.20613 0.0976492 0.0972005 9.96576e-05 0.0974765 1.71462e-06 273 
-0.27 -0.31 -1.48202 1.27772 0.0976322 0.0971728 0.000102796 0.0974456 1.7133e-06 273.123 
-0.31 -0.29 -1.3666 1.15046 0.0976852 0.0971397 8.47384e-05 0.0973835 1.71247e-06 273.082 
-0.29 -0.29 -1.43879 1.32526 0.0977025 0.0971183 6.24944e-05 0.0974061 1.71228e-06 273.176 
-0.27 -0.29 -1.7165 1.3391 0.0977606 0.0972224 0.000122979 0.0974884 1.71401e-06 273.131 
-0.31 -0.27 -1.21744 1.33321 0.0977579 0.0971493 1.2527e-05 0.0974307 1.71235e-06 273.234 
-0.25 -0.29 -1.90216 1.30701 0.097665 0.097208 0.000201521 0.0974614 1.71468e-06 272.948 
-0.29 -0.27 -1.45821 1.55938 0.0977075 0.0971248 6.62561e-05 0.09738 1.71066e-06 273.362 
-0.27 -0.27 -1.76393 1.58146 0.0976347 0.0970472 0.000149064 0.0973388 1.71154e-06 273.106 
-0.25 -0.27 -2.11965 1.69287 0.0977449 0.0972038 0.000187684 0.0974213 1.71372e-06 272.989 
-0.33 -0.27 -1.2405 1.28286 0.0978009 0.0971533 4.43555e-05 0.0974018 1.7131e-06 273.033 
-0.25 -0.49 -0.622446 -0.151132 0.0974102 0.0974064 0.000200267 0.0974484 1.71406e-06 273.011 
-0.25 -0.47 -0.783929 0.0198871 0.0975788 0.0974664 0.000246077 0.0974892 1.71474e-06 273.017 
-0.25 -0.45 -0.868938 0.161627 0.0974191 0.0973463 0.000159287 0.0973395 1.71131e-06 273.144 
-0.25 -0.37 -1.43193 0.605476 0.0975506 0.0973033 0.000137911 0.0974462 1.71241e-06 273.268 
-0.25 -0.35 -1.67286 0.691935 0.0976874 0.0972882 0.00014801 0.0974708 1.71495e-06 272.932 
-0.25 -0.33 -1.63173 0.956199 0.0976583 0.0971727 8.74323e-05 0.0974613 1.71459e-06 272.961 
-0.25 -0.25 -2.18619 1.88324 0.0977231 0.0972284 8.74822e-05 0.0975166 1.71486e-06 273.074 
-0.49 -0.25 -0.145209 0.653411 0.0976955 0.0973665 -0.000125438 0.0975711 1.71431e-06 273.315 
-0.47 -0.25 -0.182071 0.708149 0.0976925 0.0972725 -0.000206893 0.0975326 1.71509e-06 273.082 
-0.49 -0.23 -0.010052 0.600139 0.097476 0.0972881 -0.000204799 0.0974165 1.71341e-06 273.025 
-0.47 -0.23 -0.052639 1.07163 0.0975301 0.0973 -0.000166726 0.097386 1.71415e-06 272.82 
-0.45 -0.23 -0.252512 1.22239 0.0974924 0.097017 -0.000166858 0.0972928 1.71343e-06 272.674 
-0.49 -0.21 -0.107947 0.833503 0.0976789 0.097301 -0.000211465 0.0975679 1.71449e-06 273.276 
-0.43 -0.23 -0.477937 1.21864 0.0975802 0.0972103 -0.000119093 0.0973909 1.71363e-06 272.917 
-0.47 -0.21 -0.273892 0.961825 0.0975537 0.0972706 -0.000156302 0.0974419 1.71416e-06 272.977 
-0.41 -0.23 -0.701478 1.46864 0.0976628 0.0971654 -6.5096e-05 0.0974444 1.71419e-06 272.978 
-0.45 -0.21 -0.256305 1.39478 0.0975665 0.0970464 -0.000191567 0.0973624 1.71368e-06 272.829 
-0.49 -0.19 -0.0246341 1.01935 0.0975713 0.097222 -0.000220488 0.0974445 1.71497e-06 272.854 
-0.39 -0.23 -0.789465 1.48487 0.097646 0.0970673 -0.000128819 0.0973957 1.71494e-06 272.722 
-0.43 -0.21 -0.492379 1.51328 0.0976142 0.0971191 -0.000173909 0.0973953 1.71455e-06 272.783 
-0.47 -0.19 -0.361543 1.24477 0.097642 0.0972964 -0.000161667 0.0975102 1.71551e-06 272.952 
-0.41 -0.21 -0.694329 1.60424 0.0975899 0.0971028 -0.000162407 0.0973697 1.71292e-06 272.971 
-0.45 -0.19 -0.679694 1.48995 0.0976198 0.0971175 -0.000187052 0.0973817 1.71277e-06 273.029 
-0.49 -0.17 -0.25261 1.16785 0.0975859 0.0971264 -0.000203537 0.0973824 1.71241e-06 273.089 
-0.39 -0.21 -0.813196 1.53391 0.0976265 0.0969976 -5.05111e-05 0.0973563 1.71043e-06 273.332 
-0.43 -0.19 -0.601458 1.48735 0.0976659 0.0970417 -0.000188983 0.097416 1.71246e-06 273.174 
-0.47 -0.17 -0.321761 1.43113 0.0975708 0.0972497 -0.000183346 0.0974324 1.71394e-06 272.984 
-0.41 -0.19 -0.601322 1.72262 0.0977269 0.0970311 -0.000154909 0.0973844 1.71275e-06 273.04 
-0.45 -0.17 -0.305196 1.59207 0.0977073 0.097154 -0.00025184 0.0974451 1.7135e-06 273.09 
-0.49 -0.15 0.0209287 1.38765 0.0973555 0.0971424 -0.000245981 0.0972395 1.7126e-06 272.658 
-0.39 -0.19 -0.95677 1.95771 0.0977751 0.0970025 -6.44894e-05 0.0974003 1.7126e-06 273.109 
-0.43 -0.17 -0.402221 1.56763 0.0977195 0.0970583 -0.000165183 0.0974231 1.71315e-06 273.084 
-0.47 -0.15 -0.186055 1.52156 0.0975471 0.0973006 -0.000324519 0.0974497 1.71415e-06 272.999 
-0.41 -0.17 -0.633947 1.96282 0.0976336 0.0969573 -0.000140243 0.0973116 1.71147e-06 273.04 
-0.45 -0.15 -0.330193 1.56315 0.0975015 0.097099 -0.000256783 0.097291 1.71214e-06 272.875 
-0.39 -0.17 -0.81198 2.23 0.0975621 0.0968986 -4.46087e-05 0.0972975 1.71172e-06 272.96 
-0.43 -0.15 -0.437475 1.90956 0.0975066 0.0968943 -0.00015932 0.0972216 1.71033e-06 272.969 
-0.41 -0.15 -0.773914 2.07563 0.0975161 0.0969486 -7.11296e-05 0.0972176 1.7109e-06 272.867 
-0.39 -0.15 -0.956001 2.49917 0.0976367 0.0968548 -0.000120469 0.0972984 1.71207e-06 272.907 
-0.43 -0.25 -0.416578 1.14482 0.0976467 0.0971901 -7.46162e-05 0.0975111 1.71434e-06 273.142 
-0.41 -0.25 -0.541231 1.2775 0.0976264 0.0971483 -8.20656e-05 0.0974385 1.71439e-06 272.93 
-0.39 -0.25 -0.697961 1.40069 0.0977046 0.0970651 -0.00010453 0.0973717 1.71308e-06 272.952 
-0.37 -0.23 -0.799715 1.68517 0.0975345 0.0969711 -1.50258e-05 0.0973103 1.71341e-06 272.727 
-0.35 -0.23 -1.15197 1.65628 0.0976967 0.0971181 -6.04301e-05 0.097422 1.71513e-06 272.766 
-0.33 -0.23 -1.45149 1.55565 0.0976017 0.0970037 -1.27798e-05 0.0972793 1.7117e-06 272.912 
-0.37 -0.21 -1.11643 2.03003 0.0977359 0.09699 -5.93574e-05 0.0974131 1.71232e-06 273.188 
-0.35 -0.21 -1.19958 1.93997 0.0976573 0.0971295 -9.94806e-05 0.0974119 1.7142e-06 272.885 
-0.33 -0.21 -1.56887 2.01093 0.097691 0.096965 2.02985e-05 0.0973592 1.71249e-06 273.011 
-0.37 -0.19 -1.23029 2.05635 0.0977587 0.0970569 -7.87121e-05 0.0975232 1.7145e-06 273.15 
-0.35 -0.19 -1.42145 2.15647 0.0976792 0.0969937 1.5805e-05 0.0973478 1.71329e-06 272.851 
-0.33 -0.19 -1.5293 2.26177 0.0975947 0.0969079 6.46382e-05 0.0973301 1.71019e-06 273.295 
-0.37 -0.17 -1.13625 2.49053 0.0975342 0.0970005 -9.99919e-06 0.0973604 1.71202e-06 273.088 
-0.35 -0.17 -1.66977 2.29984 0.097558 0.0969199 4.33579e-05 0.0972472 1.70924e-06 273.214 
-0.33 -0.17 -1.7695 2.33144 0.0976596 0.0969824 1.41118e-06 0.0973489 1.71138e-06 273.159 
-0.37 -0.15 -1.07621 2.85597 0.0976685 0.0969441 -3.05623e-05 0.0973075 1.71106e-06 273.094 
-0.35 -0.15 -1.26927 2.61215 0.0976377 0.0969717 3.75424e-06 0.0973268 1.7113e-06 273.11 
-0.33 -0.15 -1.67761 2.52855 0.0976123 0.0969495 2.59422e-05 0.0971988 1.70979e-06 272.992 
-0.35 -0.13 -1.43015 2.91636 0.0976654 0.0968756 3.7317e-05 0.0972682 1.71047e-06 273.078 
-0.33 -0.13 -1.75283 2.86528 0.0976379 0.0969091 0.000106802 0.0972947 1.71123e-06 273.03 
-0.33 -0.09 -1.78813 3.46886 0.097477 0.0966798 4.49939e-05 0.0970672 1.70917e-06 272.72 
-0.37 -0.13 -1.43759 2.93937 0.0976572 0.0968798 -9.91027e-05 0.0971974 1.70998e-06 272.956 
-0.37 -0.11 -1.4369 2.98312 0.0974376 0.0966923 -0.000112725 0.0970517 1.70703e-06 273.019 
-0.35 -0.11 -1.62855 3.05002 0.0974909 0.0968002 -6.1814e-06 0.0971789 1.70836e-06 273.163 
-0.33 -0.11 -1.75368 3.24001 0.0975099 0.0967788 0.000102506 0.0971993 1.71145e-06 272.727 
-0.35 -0.09 -1.57534 3.14675 0.0974326 0.0966873 1.8963e-05 0.097054 1.70777e-06 272.907 
-0.49 -0.13 0.0753097 1.45766 0.0974153 0.0971691 -0.000401624 0.0972638 1.71157e-06 272.89 
-0.47 -0.13 0.00699696 1.7111 0.0975175 0.097168 -0.000311891 0.0973292 1.71126e-06 273.122 
-0.45 -0.13 -0.13554 1.64313 0.0975284 0.0970345 -0.000182465 0.097257 1.71104e-06 272.955 
-0.49 -0.11 0.0710919 1.33528 0.0975085 0.0971335 -0.000363032 0.09734 1.71298e-06 272.879 
-0.43 -0.13 -0.547855 2.22899 0.0975284 0.0968798 -0.000244613 0.0971966 1.7093e-06 273.063 
-0.47 -0.11 -0.0317573 1.85317 0.0975382 0.0971057 -0.000366279 0.0973925 1.71211e-06 273.164 
-0.41 -0.13 -0.910097 2.50337 0.0975497 0.0968716 -0.000233623 0.0971773 1.70969e-06 272.946 
-0.45 -0.11 -0.508127 2.23522 0.0974811 0.0969494 -0.000242925 0.0971919 1.70937e-06 273.039 
-0.49 -0.09 -0.118799 1.46066 0.0974731 0.0971783 -0.000397329 0.0973109 1.71195e-06 272.962 
-0.39 -0.13 -1.2732 2.61376 0.0976298 0.0968969 -0.000122259 0.0972891 1.71205e-06 272.884 
-0.43 -0.11 -0.825088 2.43927 0.0974736 0.0968353 -0.000246136 0.0972354 1.70926e-06 273.179 
-0.47 -0.09 -0.362924 2.07418 0.0974548 0.096983 -0.000388468 0.0972379 1.71102e-06 272.905 
-0.41 -0.11 -0.925629 2.79104 0.0974698 0.0968432 -0.0002253 0.0972273 1.70967e-06 273.091 
-0.45 -0.09 -0.286258 2.40968 0.0974405 0.0968792 -0.000227249 0.0972279 1.70993e-06 273.05 
-0.39 -0.11 -1.18055 2.97312 0.0974722 0.0968458 -0.000149081 0.0971869 1.709e-06 273.084 
-0.43 -0.09 -0.506418 2.70282 0.097531 0.0969498 -0.000249031 0.0972295 1.70902e-06 273.2 
-0.41 -0.09 -0.887457 3.1042 0.0974163 0.0967392 -0.000196989 0.0970843 1.70763e-06 273.015 
-0.39 -0.09 -1.02769 2.9937 0.0974965 0.0968049 -0.000164799 0.0971378 1.71009e-06 272.772 
-0.37 -0.09 -1.23707 3.39672 0.0974748 0.0966738 -9.08893e-05 0.0970578 1.70719e-06 273.011 
-0.35 -0.03 -1.95837 4.05265 0.0974767 0.0965359 -7.06683e-05 0.097003 1.70677e-06 272.924 
-0.37 -0.07 -1.31664 3.47668 0.0974199 0.0965717 -5.71749e-05 0.0970314 1.70764e-06 272.864 
-0.41 -0.05 -0.935924 3.45411 0.097429 0.0967179 -0.000223434 0.0970931 1.70749e-06 273.062 
-0.45 -0.03 -0.290003 3.14709 0.0973632 0.0966622 -0.000362066 0.0970132 1.70712e-06 272.896 
-0.35 -0.07 -1.54727 3.43002 0.0975619 0.0965767 -4.12939e-05 0.0970373 1.70784e-06 272.848 
-0.39 -0.05 -0.99953 3.5908 0.097385 0.0966326 -0.000153356 0.0970662 1.70877e-06 272.782 
-0.43 -0.03 -0.573119 3.35127 0.0974315 0.0967631 -0.00023724 0.0970938 1.70795e-06 272.99 
-0.33 -0.07 -1.76446 3.60971 0.0976002 0.0967252 4.31151e-05 0.0970934 1.70993e-06 272.672 
-0.37 -0.05 -1.43389 3.74069 0.0973981 0.0965481 -0.000109316 0.0969712 1.70799e-06 272.64 
-0.41 -0.03 -1.05576 3.51468 0.09752 0.0967096 -0.000142492 0.0971385 1.70746e-06 273.194 
-0.35 -0.05 -1.82437 3.86178 0.097403 0.0965048 -5.60231e-05 0.0969094 1.7072e-06 272.591 
-0.39 -0.03 -1.46137 3.90712 0.0973814 0.0965751 -0.000120453 0.0969765 1.70731e-06 272.763 
-0.33 -0.05 -2.10072 3.90967 0.0974798 0.0966033 4.62598e-05 0.0970197 1.70852e-06 272.69 
-0.37 -0.03 -1.639 4.1944 0.0974661 0.0964658 -0.000104806 0.0969662 1.70659e-06 272.848 
-0.33 -0.03 -2.18335 4.06663 0.0974236 0.096537 -9.23659e-06 0.096986 1.70739e-06 272.777 
-0.33 -0.01 -2.15804 4.17143 0.0974009 0.0964958 -4.67911e-05 0.096962 1.70556e-06 273.001 
-0.49 -0.07 -0.0862397 1.61366 0.0974216 0.0970777 -0.000388294 0.0972206 1.71026e-06 272.978 
-0.47 -0.07 -0.282845 2.25368 0.0974254 0.0968784 -0.000305871 0.0971404 1.70925e-06 272.913 
-0.45 -0.07 -0.545227 2.51141 0.0974227 0.0968639 -0.000294117 0.0971159 1.70971e-06 272.772 
-0.49 -0.05 -0.117279 1.94966 0.0973883 0.0968537 -0.000473765 0.0970801 1.70774e-06 272.985 
-0.43 -0.07 -0.618095 2.90836 0.0974826 0.0968746 -0.000293736 0.0971706 1.70922e-06 273.002 
-0.47 -0.05 -0.194908 2.38453 0.0974939 0.0969636 -0.000410055 0.0971842 1.71138e-06 272.696 
-0.41 -0.07 -0.777284 3.33107 0.0975699 0.0967248 -0.000189796 0.09712 1.70912e-06 272.876 
-0.45 -0.05 -0.612234 2.7184 0.0975095 0.0967587 -0.000317477 0.0971429 1.71024e-06 272.762 
-0.49 -0.03 -0.0732238 1.95296 0.0973899 0.0968977 -0.000451536 0.0971418 1.7092e-06 272.925 
-0.39 -0.07 -1.10096 3.39773 0.0975247 0.0967398 -0.000199541 0.0971134 1.70785e-06 273.06 
-0.43 -0.05 -0.925147 3.04244 0.0974798 0.0968898 -0.000228047 0.0972105 1.70962e-06 273.051 
-0.47 -0.03 -0.116028 2.6429 0.0973587 0.0968832 -0.000378165 0.0970782 1.70878e-06 272.814 
-0.27 -0.07 -2.77206 3.7491 0.0975958 0.0968 0.000191451 0.0971771 1.70918e-06 273.027 
-0.31 -0.05 -2.37447 3.77045 0.0975338 0.0967222 5.26986e-05 0.097082 1.70895e-06 272.797 
-0.27 -0.09 -2.47424 3.4789 0.097612 0.0968901 5.8093e-05 0.0972808 1.70868e-06 273.4 
-0.31 -0.07 -1.9436 3.57136 0.0975469 0.0967018 5.8673e-05 0.0971384 1.71022e-06 272.753 
-0.29 -0.07 -2.35582 3.72633 0.0976257 0.0968949 0.000141866 0.0972657 1.709e-06 273.305 
-0.25 -0.07 -2.95188 3.55649 0.0974965 0.0969305 0.000163053 0.097228 1.70918e-06 273.171 
-0.29 -0.05 -2.57119 4.03179 0.0975142 0.0967645 8.12973e-05 0.0971116 1.70756e-06 273.102 
-0.27 -0.05 -2.59477 4.07375 0.0975285 0.0967643 0.000152831 0.0971494 1.709e-06 272.978 
-0.31 -0.03 -2.48781 4.12768 0.0974112 0.0967594 1.30232e-05 0.0970702 1.70964e-06 272.653 
-0.25 -0.05 -2.83009 3.67293 0.0974717 0.0968091 0.000284731 0.0971701 1.71025e-06 272.837 
-0.29 -0.03 -2.63506 4.17103 0.0975108 0.0966997 5.08004e-05 0.0970758 1.70894e-06 272.782 
-0.27 -0.03 -2.96361 4.17021 0.0974774 0.0966391 0.000205263 0.0971287 1.70814e-06 273.057 
-0.31 -0.01 -2.43029 4.62302 0.0974225 0.0967483 -2.5851e-07 0.0970908 1.70934e-06 272.759 
-0.25 -0.03 -2.96729 3.92054 0.0975278 0.0968499 0.000236554 0.0972083 1.71097e-06 272.83 
-0.29 -0.01 -2.81142 4.41385 0.0973369 0.0965853 0.000118399 0.0970064 1.7064e-06 272.992 
-0.27 -0.01 -2.92778 4.28481 0.097275 0.0965925 0.00013469 0.0970498 1.70843e-06 272.789 
-0.33 -0.25 -1.1136 1.29768 0.0977351 0.0971369 -2.44097e-05 0.0974227 1.71401e-06 272.946 
-0.31 -0.25 -1.3808 1.68517 0.0977474 0.0971453 1.3868e-05 0.0974215 1.71346e-06 273.031 
-0.29 -0.25 -1.76389 1.83701 0.0977261 0.0969911 0.0001734 0.097404 1.71278e-06 273.089 
-0.27 -0.25 -2.07136 1.94598 0.0977148 0.0970558 0.000179514 0.0974235 1.71435e-06 272.894 
-0.29 -0.11 -2.30681 3.22075 0.0976135 0.0967769 0.000107685 0.0971805 1.71019e-06 272.875 
-0.27 -0.11 -2.54358 3.21343 0.0976237 0.0969629 0.000176744 0.0972756 1.70957e-06 273.242 
-0.31 -0.09 -2.02845 3.23213 0.0975829 0.096865 0.000106165 0.0972496 1.71068e-06 272.992 
-0.29 -0.09 -2.15374 3.50925 0.0975703 0.0968195 0.000101032 0.0972308 1.70954e-06 273.121 
-0.31 -0.23 -1.7553 1.96412 0.0975176 0.0971216 7.87172e-05 0.0973836 1.71336e-06 272.94 
-0.29 -0.23 -2.00633 2.11996 0.0976153 0.0969355 4.05538e-05 0.0973488 1.71237e-06 273.001 
-0.27 -0.23 -1.97301 2.01619 0.0976914 0.0971039 0.000123105 0.0974301 1.71287e-06 273.149 
-0.31 -0.21 -1.9344 2.10187 0.0977759 0.0971295 7.23733e-05 0.0974004 1.71391e-06 272.9 
-0.29 -0.21 -1.8265 2.12068 0.0976482 0.0969135 5.2639e-05 0.0973588 1.71346e-06 272.856 
-0.27 -0.21 -1.85319 2.1914 0.0976493 0.0970632 4.63826e-05 0.097412 1.71249e-06 273.159 
-0.31 -0.19 -1.50981 2.25467 0.0976514 0.0970541 -2.69337e-07 0.0973292 1.71105e-06 273.156 
-0.25 -0.21 -2.07603 2.08665 0.0977169 0.0971562 0.000164432 0.0973954 1.71129e-06 273.304 
-0.29 -0.19 -1.79456 2.20946 0.0976589 0.0969727 4.28618e-05 0.0973342 1.71246e-06 272.945 
-0.27 -0.19 -2.07693 2.28571 0.097585 0.0969933 0.000106728 0.0973399 1.71169e-06 273.084 
-0.31 -0.17 -1.86541 2.41121 0.0976499 0.0970173 3.19326e-05 0.0973272 1.71171e-06 273.045 
-0.25 -0.19 -2.19815 2.28616 0.0974822 0.096992 0.000197739 0.0972575 1.71218e-06 272.774 
-0.29 -0.17 -2.07188 2.42968 0.0975313 0.0968481 0.000172579 0.0972316 1.70967e-06 273.102 
-0.27 -0.17 -2.35348 2.71711 0.0975101 0.0970493 0.000160735 0.0973163 1.71184e-06 272.994 
-0.31 -0.15 -1.99772 2.57485 0.0974873 0.0968689 7.17737e-05 0.0972289 1.71074e-06 272.924 
-0.25 -0.17 -2.65389 2.29059 0.0974947 0.0969074 0.000186387 0.0971923 1.71073e-06 272.823 
-0.29 -0.15 -2.21512 2.74688 0.0975439 0.0969012 0.000138229 0.0972751 1.7113e-06 272.965 
-0.27 -0.15 -2.39818 2.80769 0.0975662 0.0969196 0.000211113 0.0972108 1.71141e-06 272.767 
-0.31 -0.13 -2.01242 2.7435 0.0975712 0.0968409 0.000187429 0.0972657 1.71087e-06 273.006 
-0.25 -0.15 -2.68277 2.54674 0.0974341 0.0968965 0.000186188 0.0971647 1.70865e-06 273.078 
-0.29 -0.13 -2.2368 3.07132 0.0975538 0.0968239 0.00013931 0.0972001 1.71013e-06 272.94 
-0.27 -0.13 -2.49197 2.90132 0.0975219 0.096881 0.000130663 0.0971301 1.70857e-06 272.993 
-0.31 -0.11 -2.02472 2.93591 0.097546 0.0968506 0.000161522 0.0971899 1.71009e-06 272.919 
-0.25 -0.13 -2.59635 2.8257 0.0976569 0.096956 0.000211332 0.0973047 1.71155e-06 273.007 
-0.25 -0.23 -2.06857 1.97811 0.0976931 0.0971852 0.000122155 0.0973829 1.71474e-06 272.719 
-0.25 -0.11 -2.77556 3.00371 0.0976165 0.0969242 0.000127303 0.0972308 1.71009e-06 273.033 
-0.25 -0.09 -2.83303 3.16945 0.0976267 0.0969156 0.000147269 0.0972957 1.70909e-06 273.376 
-0.25 -0.01 -3.22104 4.14356 0.0972757 0.0967907 0.000200934 0.0970229 1.70814e-06 272.761 
-0.23 -0.49 -0.506371 0.174386 0.0973137 0.0974275 0.000221198 0.0974543 1.71414e-06 273.014 
-0.21 -0.49 -0.746497 -0.0399073 0.0973603 0.0971555 0.000206254 0.0973561 1.71201e-06 273.079 
-0.19 -0.49 -0.822305 0.066873 0.0974516 0.0974651 0.000259583 0.0974585 1.71335e-06 273.151 
-0.23 -0.47 -1.04443 0.0750222 0.0974837 0.0974242 0.000278891 0.0974479 1.71643e-06 272.632 
-0.17 -0.49 -0.716336 -0.223216 0.0974715 0.0974382 0.000253459 0.097475 1.71398e-06 273.097 
-0.21 -0.47 -0.997215 0.133557 0.0974257 0.0972192 0.000208992 0.0973914 1.71213e-06 273.158 
-0.15 -0.49 -0.709663 0.144285 0.097501 0.0975268 0.000248185 0.0975703 1.71559e-06 273.108 
-0.19 -0.47 -1.10012 -0.000243681 0.0975378 0.0974278 0.000163406 0.0974385 1.71387e-06 273.014 