ITEM: TIMESTEP
886500
ITEM: NUMBER OF CELLS
2500
ITEM: BOX BOUNDS ss ss pp
-0.5 0.5
-0.5 0.5
-0.5 0.5
ITEM: CELLS xc yc f_U[*] f_V[*] f_Tau[1] f_Tau[2] f_Tau[3] f_Press[*] f_Mrho[*] f_Ttra[*] 
-0.49 -0.49 -0.0979298 0.110425 0.0974332 0.097293 -1.05959e-05 0.0973764 1.71222e-06 273.102 
-0.47 -0.49 -0.152288 -0.137577 0.0974841 0.0975229 -3.50438e-05 0.0975782 1.71636e-06 273.007 
-0.45 -0.49 -0.0528797 -0.0400182 0.0975127 0.0973704 -3.03411e-06 0.097541 1.71601e-06 272.959 
-0.49 -0.47 -0.00554974 0.0916307 0.0973279 0.0973799 -0.000107014 0.0973198 1.71346e-06 272.746 
-0.43 -0.49 -0.0361019 0.140682 0.0975321 0.0973759 -5.24059e-06 0.0973706 1.71269e-06 273.011 
-0.47 -0.47 0.229362 -0.11094 0.0974099 0.0973984 5.31588e-05 0.0974126 1.71334e-06 273.025 
-0.41 -0.49 -0.0940232 0.0347619 0.0975006 0.0973519 4.93204e-05 0.0974152 1.71487e-06 272.788 
-0.45 -0.47 -0.0283737 0.00764908 0.0973894 0.0973876 -2.34583e-05 0.0974836 1.71541e-06 272.894 
-0.49 -0.45 0.0610779 -0.128031 0.0974792 0.0973831 -1.55917e-05 0.0973931 1.71259e-06 273.09 
-0.39 -0.49 -0.249749 -0.0545669 0.0974121 0.0972467 6.64237e-05 0.0974205 1.71425e-06 272.901 
-0.43 -0.47 -0.0598211 0.1109 0.0973318 0.0973355 4.33354e-05 0.0973368 1.71146e-06 273.112 
-0.47 -0.45 0.105692 -0.11926 0.0973003 0.0973906 -0.000107005 0.0973427 1.71287e-06 272.903 
-0.37 -0.49 -0.195455 0.0626991 0.0974251 0.0974225 0.000144889 0.097572 1.7146e-06 273.27 
-0.41 -0.47 -0.331966 0.220025 0.0974651 0.0973572 4.63096e-05 0.0974991 1.71426e-06 273.12 
-0.45 -0.45 0.0437964 0.436942 0.0972484 0.0972414 0.000123224 0.0972678 1.71312e-06 272.654 
-0.49 -0.43 -0.00640779 -0.105139 0.0973404 0.0973106 7.92314e-05 0.0973652 1.71244e-06 273.036 
-0.35 -0.49 -0.431279 0.185996 0.0973694 0.0973514 4.43221e-05 0.097523 1.71514e-06 273.048 
-0.39 -0.47 -0.302837 0.0256935 0.0975082 0.0972528 0.000109541 0.0974563 1.71245e-06 273.289 
-0.43 -0.45 -0.367681 -0.0436587 0.0973001 0.0975081 -5.35604e-05 0.0974634 1.71504e-06 272.896 
-0.47 -0.43 -0.23726 -0.0740886 0.0973738 0.0974238 4.62936e-05 0.0974427 1.71357e-06 273.072 
-0.37 -0.47 -0.387591 0.161248 0.0974899 0.0973691 5.00469e-05 0.09743 1.71235e-06 273.231 
-0.41 -0.45 -0.151152 0.409802 0.0971907 0.0972126 -2.05555e-05 0.0972312 1.71149e-06 272.81 
-0.45 -0.43 -0.328224 0.55853 0.0973694 0.0973376 0.000113818 0.0974711 1.71386e-06 273.106 
-0.49 -0.41 0.071904 -0.0636051 0.0972762 0.0973784 5.40048e-05 0.0973385 1.71336e-06 272.814 
-0.35 -0.47 -0.420673 0.256733 0.0975422 0.0974167 0.000106936 0.0974455 1.71319e-06 273.14 
-0.39 -0.45 -0.347361 0.171883 0.0971768 0.0972209 5.18697e-05 0.0971868 1.70919e-06 273.054 
-0.43 -0.43 -0.466655 0.226529 0.0974452 0.0973766 -7.95875e-05 0.0975083 1.71281e-06 273.378 
-0.47 -0.41 -0.058852 0.216936 0.0973141 0.0973758 -5.38076e-05 0.0973397 1.7135e-06 272.795 
-0.37 -0.45 -0.452709 0.179556 0.0973149 0.0974433 -1.99741e-05 0.0973881 1.7135e-06 272.93 
-0.41 -0.43 -0.566222 0.313135 0.0973986 0.0971896 4.69495e-06 0.0973722 1.71246e-06 273.051 
-0.45 -0.41 -0.286313 0.37016 0.0974783 0.0974944 -8.5801e-06 0.0975522 1.71542e-06 273.085 
-0.49 -0.39 -0.223522 0.171409 0.0974382 0.0974508 -5.17803e-05 0.0974929 1.71314e-06 273.282 
-0.35 -0.45 -0.4341 0.241732 0.0972276 0.0972153 0.000141211 0.097244 1.71165e-06 272.82 
-0.39 -0.43 -0.203651 -0.022957 0.0973679 0.0972937 1.93346e-05 0.0973413 1.71298e-06 272.882 
-0.43 -0.41 -0.185309 0.511948 0.0973674 0.0973681 6.39612e-05 0.0974481 1.71294e-06 273.188 
-0.47 -0.39 -0.354353 0.151143 0.0974168 0.0974195 -3.52366e-05 0.097393 1.71348e-06 272.948 
-0.33 -0.45 -0.453567 0.224999 0.0973777 0.0972582 0.000130894 0.0973013 1.7134e-06 272.704 
-0.37 -0.43 -0.557699 0.516128 0.0974518 0.0973386 8.45204e-05 0.0973738 1.7141e-06 272.795 
-0.41 -0.41 -0.446415 0.184978 0.0973093 0.0971555 6.49698e-05 0.0973313 1.71355e-06 272.764 
-0.45 -0.39 -0.205631 0.540245 0.0975083 0.0973305 -0.000117349 0.0974126 1.71541e-06 272.696 
-0.35 -0.43 -0.548469 0.206858 0.097393 0.0973114 0.000145353 0.0973786 1.71271e-06 273.03 
-0.39 -0.41 -0.696424 0.324023 0.097404 0.0974303 -2.41812e-05 0.0974502 1.7138e-06 273.056 
-0.43 -0.39 -0.117318 0.486977 0.0976294 0.0973397 6.56815e-05 0.0975274 1.71611e-06 272.905 
-0.37 -0.41 -0.575366 0.462617 0.0972226 0.0971059 4.91961e-05 0.0972153 1.70912e-06 273.145 
-0.41 -0.39 -0.230913 0.39625 0.097603 0.097273 5.7714e-05 0.0974948 1.71401e-06 273.148 
-0.35 -0.41 -0.617037 0.175173 0.0973239 0.0972605 4.59905e-05 0.0973274 1.71178e-06 273.034 
-0.39 -0.39 -0.557066 0.511207 0.0975746 0.0974165 5.55352e-05 0.0975268 1.71387e-06 273.259 
-0.33 -0.41 -0.515179 0.343926 0.0973966 0.0974066 2.86928e-05 0.0973942 1.71226e-06 273.146 
-0.37 -0.39 -0.444565 0.232136 0.0974639 0.0971223 8.10356e-05 0.0973564 1.71118e-06 273.212 
-0.35 -0.39 -0.224091 0.263825 0.0973945 0.097253 4.54052e-05 0.0973778 1.71059e-06 273.365 
-0.33 -0.39 -0.474312 0.403303 0.0975095 0.0973579 3.87319e-05 0.0974259 1.71389e-06 272.975 
-0.37 -0.37 -0.558503 0.168644 0.0976614 0.0972494 9.9575e-05 0.0973921 1.71332e-06 272.97 
-0.49 -0.37 -0.049707 0.274049 0.0975328 0.0975048 -0.000129638 0.0975628 1.7165e-06 272.943 
-0.47 -0.37 -0.0344569 0.446131 0.0975197 0.0974467 -7.59621e-05 0.0975337 1.71507e-06 273.088 
-0.45 -0.37 -0.25948 0.310374 0.0974174 0.0971368 -4.90476e-05 0.0972712 1.71347e-06 272.607 
-0.49 -0.35 -0.158686 0.53599 0.097586 0.0974421 -2.96029e-05 0.097571 1.71433e-06 273.31 
-0.43 -0.37 -0.3763 0.60564 0.0975002 0.0972653 -3.04942e-05 0.0974507 1.71572e-06 272.752 
-0.47 -0.35 -0.446339 0.287823 0.0975451 0.0973675 -2.05608e-06 0.0974393 1.71506e-06 272.825 
-0.45 -0.35 -0.160281 0.523132 0.0976511 0.0972935 -3.66396e-05 0.097453 1.71312e-06 273.173 
-0.49 -0.33 -0.0285794 0.633523 0.0974137 0.0973173 -0.000142037 0.0974409 1.71434e-06 272.945 
-0.39 -0.37 -0.410642 0.438856 0.0976016 0.0972541 3.90473e-05 0.0974751 1.71229e-06 273.368 
-0.43 -0.35 -0.273305 0.677529 0.0975587 0.0971791 -3.45548e-05 0.0974222 1.71267e-06 273.158 
-0.47 -0.33 0.161157 0.318702 0.0974623 0.0973431 -3.2346e-05 0.097417 1.713e-06 273.092 
-0.41 -0.35 -0.223435 0.574172 0.0975547 0.0973352 -3.02427e-05 0.0975537 1.71535e-06 273.1 
-0.45 -0.33 0.00633511 0.429704 0.0974653 0.0973637 -8.67104e-05 0.0974725 1.71379e-06 273.121 
-0.49 -0.31 0.117841 0.661675 0.0973006 0.0972669 -0.000151397 0.0972821 1.7113e-06 272.984 
-0.39 -0.35 -0.360038 0.596422 0.0975558 0.0972154 -3.13557e-06 0.0975037 1.71321e-06 273.3 
-0.43 -0.33 -0.0841407 0.784271 0.0974267 0.0970478 -0.000104528 0.0973055 1.71228e-06 272.893 
-0.47 -0.31 -0.223117 0.288704 0.0973725 0.0972728 -8.38736e-05 0.0973745 1.7099e-06 273.466 
-0.37 -0.35 -0.413739 0.369666 0.0976393 0.0972141 8.40662e-05 0.0974441 1.71312e-06 273.148 
-0.41 -0.33 -0.335531 0.696241 0.0974879 0.0973405 -3.3424e-05 0.0974521 1.71378e-06 273.066 
-0.45 -0.31 -0.198356 0.48164 0.0974773 0.0973939 -1.35442e-05 0.0974891 1.71324e-06 273.255 
-0.49 -0.29 -0.0299441 0.596088 0.0975537 0.0972769 -8.28566e-05 0.0974494 1.71399e-06 273.025 
-0.35 -0.35 -0.699158 0.427869 0.0975536 0.0973815 -1.36251e-05 0.0974619 1.7151e-06 272.883 
-0.39 -0.33 -0.372711 0.753634 0.0975312 0.0971372 -4.1455e-05 0.0974005 1.71159e-06 273.269 
-0.43 -0.31 -0.124161 0.845113 0.0974197 0.0972182 -9.06789e-05 0.0972728 1.71179e-06 272.88 
-0.47 -0.29 -0.0980264 0.737839 0.0975491 0.0971513 -0.000162319 0.0973589 1.71117e-06 273.22 
-0.37 -0.33 -0.685734 0.694132 0.0976068 0.0972668 3.13072e-05 0.0974781 1.71457e-06 273.012 
-0.41 -0.31 -0.180349 0.883973 0.0974873 0.0972458 -0.000173854 0.0973289 1.71238e-06 272.943 
-0.45 -0.29 -0.46687 0.560892 0.097576 0.0974359 -8.25032e-05 0.0975689 1.71473e-06 273.241 
-0.49 -0.27 -0.143861 0.823986 0.0976203 0.0973908 -0.000103749 0.09747 1.71276e-06 273.278 
-0.35 -0.33 -1.04636 0.711851 0.0977053 0.0973611 0.000147799 0.0975642 1.71429e-06 273.298 
-0.39 -0.31 -0.422323 0.872444 0.0975498 0.097169 -1.23897e-05 0.0974126 1.71137e-06 273.339 
-0.43 -0.29 -0.601502 0.615818 0.097686 0.0972739 -0.000100016 0.0975677 1.71481e-06 273.225 
-0.47 -0.27 -0.234881 0.553624 0.0976627 0.0972141 -0.000233234 0.0973909 1.71274e-06 273.06 
-0.33 -0.33 -1.2006 0.795155 0.0976271 0.0971986 8.10352e-05 0.0974338 1.71314e-06 273.116 
-0.37 -0.31 -0.832088 1.21887 0.0974864 0.0971168 -3.42762e-05 0.0973309 1.71228e-06 272.965 
-0.41 -0.29 -0.67976 1.17782 0.0976069 0.0972505 -8.21744e-05 0.097479 1.71469e-06 272.996 
-0.45 -0.27 0.000638424 1.00618 0.097653 0.0973289 -0.000121425 0.0975334 1.71249e-06 273.499 
-0.35 -0.31 -1.12606 0.827 0.097418 0.0973374 0.000100773 0.0974102 1.71152e-06 273.308 
-0.39 -0.29 -0.826057 0.868014 0.0973645 0.0970395 -0.000138785 0.0972427 1.7114e-06 272.857 
-0.43 -0.27 -0.395331 0.844953 0.0975748 0.0971532 -0.00010111 0.0974096 1.71408e-06 272.898 
-0.37 -0.29 -0.540221 1.44838 0.0974114 0.0970295 2.19746e-05 0.0972198 1.71065e-06 272.913 
-0.41 -0.27 -0.638288 1.07695 0.0976399 0.0973 -4.89923e-05 0.0974589 1.71616e-06 272.705 
-0.35 -0.29 -0.884186 0.907413 0.0975941 0.0972965 -2.03993e-05 0.0974964 1.71396e-06 273.16 
-0.39 -0.27 -0.4938 0.93981 0.0977078 0.0969818 -4.25955e-05 0.0973825 1.71393e-06 272.846 
-0.33 -0.29 -0.976837 1.24579 0.0975851 0.0970746 0.000156033 0.0972963 1.71129e-06 273.025 
-0.37 -0.27 -0.753366 1.52238 0.0977044 0.0970303 -8.8631e-05 0.0974141 1.71506e-06 272.756 
-0.35 -0.27 -1.0791 1.26079 0.0976802 0.0970409 -4.21711e-07 0.0974162 1.71541e-06 272.705 
-0.41 -0.37 -0.355471 0.752872 0.0975209 0.0973218 3.89346e-05 0.097501 1.71469e-06 273.057 
-0.35 -0.37 -0.56607 0.222825 0.0977013 0.0973181 -2.19145e-05 0.0974537 1.71443e-06 272.966 
-0.45 -0.25 -0.318263 1.02918 0.0976018 0.0971927 -0.000204818 0.0974491 1.71405e-06 273.013 
-0.37 -0.25 -0.877442 1.42716 0.0976933 0.0969622 -1.27017e-05 0.0973356 1.71405e-06 272.697 
-0.35 -0.25 -0.642419 1.49427 0.097743 0.0969695 4.4797e-05 0.097402 1.71649e-06 272.494 
-0.33 -0.49 -0.623955 -0.0263645 0.0973348 0.0973431 9.69063e-05 0.0973883 1.71451e-06 272.771 
-0.31 -0.49 -0.67839 0.0788535 0.097454 0.0971847 0.000201919 0.0973513 1.7116e-06 273.129 
-0.29 -0.49 -0.856049 -0.0166051 0.0975311 0.0974741 0.000104829 0.0975507 1.71592e-06 273.001 
-0.33 -0.47 -0.475891 0.137373 0.0975207 0.0972024 0.000144099 0.097363 1.71481e-06 272.652 
-0.27 -0.49 -0.647254 0.101206 0.0975329 0.0974547 0.000204556 0.0974896 1.71447e-06 273.061 
-0.31 -0.47 -0.644013 0.0802001 0.0973822 0.0972955 0.00010143 0.0973224 1.71199e-06 272.987 
-0.29 -0.47 -0.639227 0.096883 0.0974201 0.0973749 0.000151091 0.0973597 1.71285e-06 272.954 
-0.27 -0.47 -0.808455 0.0388991 0.0973943 0.0972574 0.000128429 0.0973654 1.71366e-06 272.842 
-0.31 -0.45 -0.475554 0.270708 0.097547 0.0974138 9.77115e-05 0.09748 1.71383e-06 273.135 
-0.29 -0.45 -0.516278 0.10118 0.0974712 0.0973448 0.000125698 0.0974139 1.71315e-06 273.059 
-0.33 -0.43 -0.611611 0.313493 0.0973437 0.0972504 9.48709e-05 0.097381 1.71266e-06 273.044 
-0.27 -0.45 -0.760567 -0.0140282 0.0974445 0.0973186 0.000165865 0.0973314 1.71104e-06 273.163 
-0.31 -0.43 -0.583807 0.12661 0.0973501 0.0973329 4.62043e-05 0.0973556 1.71249e-06 273.001 
-0.29 -0.43 -0.675628 0.215187 0.0973898 0.0972561 0.000158843 0.0973673 1.71087e-06 273.292 
-0.27 -0.43 -0.541198 0.0399959 0.0974954 0.0972105 0.000240468 0.097335 1.70978e-06 273.375 
-0.31 -0.41 -0.557315 0.283909 0.0973925 0.0971783 9.31554e-05 0.0972713 1.71033e-06 273.108 
-0.29 -0.41 -0.826681 0.275606 0.0974151 0.0972334 0.000113933 0.0973239 1.70962e-06 273.37 
-0.27 -0.41 -1.00229 -0.0573856 0.0973442 0.0972449 0.00017363 0.0972113 1.7088e-06 273.184 
-0.31 -0.39 -0.848404 0.496206 0.0975304 0.0971872 2.55704e-05 0.0972889 1.7145e-06 272.494 
-0.29 -0.39 -0.816118 0.33882 0.0974758 0.097207 9.50586e-05 0.0973131 1.71176e-06 272.997 
-0.33 -0.37 -0.630724 0.837646 0.0976224 0.0972672 1.91407e-05 0.0974699 1.71392e-06 273.093 
-0.27 -0.39 -1.05489 0.356058 0.0975167 0.0973225 0.00014644 0.0974279 1.71272e-06 273.166 
-0.31 -0.37 -0.92048 0.560355 0.0975268 0.097225 9.44829e-05 0.0973349 1.71097e-06 273.185 
-0.29 -0.37 -1.08205 0.421619 0.0974418 0.0971214 0.000192262 0.0973538 1.71121e-06 273.2 
-0.33 -0.35 -0.789503 0.894481 0.0976818 0.0971786 0.000101194 0.0974631 1.71422e-06 273.026 
-0.27 -0.37 -1.38372 0.694887 0.0975536 0.0972408 7.49427e-05 0.0973769 1.71191e-06 273.153 
-0.31 -0.35 -0.914707 0.912902 0.0976701 0.0971823 0.000173273 0.0973793 1.71388e-06 272.846 
-0.29 -0.35 -1.33101 0.644967 0.0976458 0.0972362 0.000101619 0.0973886 1.71343e-06 272.944 
-0.27 -0.35 -1.48541 1.07502 0.0975598 0.0972497 7.16977e-05 0.0973507 1.71453e-06 272.661 
-0.31 -0.33 -1.11692 0.996318 0.0975798 0.0969375 0.000106964 0.0972907 1.71346e-06 272.664 
-0.29 -0.33 -1.18694 0.863635 0.0975677 0.0972542 0.00018297 0.0974735 1.71372e-06 273.134 
-0.33 -0.31 -1.22564 0.832911 0.097517 0.0971574 8.12282e-05 0.0972862 1.7122e-06 272.852 
-0.27 -0.33 -1.46158 1.24327 0.0976448 0.0972881 0.00017436 0.0975451 1.71571e-06 273.018 
-0.31 -0.31 -1.19703 0.89816 0.0974769 0.0970043 0.000152521 0.097336 1.71424e-06 272.666 
-0.29 -0.31 -1.44401 1.26689 0.0976705 0.0972509 7.0098e-05 0.0975203 1.71556e-06 272.973 
-0.27 -0.31 -1.56581 1.34873 0.0977289 0.0972374 0.000151501 0.097502 1.71321e-06 273.296 
-0.31 -0.29 -1.40341 0.960882 0.097645 0.0970722 9.63968e-05 0.0973423 1.71234e-06 272.987 
-0.29 -0.29 -1.39394 1.37658 0.0976438 0.0971886 3.98617e-05 0.0974385 1.71406e-06 272.982 
-0.27 -0.29 -1.58466 1.33212 0.0976927 0.0973018 7.84262e-05 0.0975175 1.71464e-06 273.111 
-0.31 -0.27 -1.16777 1.31621 0.0976902 0.0971762 4.70392e-05 0.097409 1.71175e-06 273.268 
-0.25 -0.29 -1.80321 1.25102 0.0976264 0.0972526 0.00026822 0.0974371 1.7133e-06 273.099 
-0.29 -0.27 -1.43087 1.48328 0.0977093 0.0972083 1.18162e-05 0.0974284 1.71038e-06 273.542 
-0.27 -0.27 -1.84297 1.57252 0.0975843 0.0971342 0.000144616 0.0973717 1.71081e-06 273.313 
-0.25 -0.27 -2.1431 1.71013 0.0975951 0.0971797 0.000172132 0.0973181 1.71124e-06 273.095 
-0.33 -0.27 -1.24881 1.20965 0.0976937 0.0970358 0.000115015 0.0973069 1.71234e-06 272.888 
-0.25 -0.49 -0.792893 -0.167355 0.0974205 0.0975035 0.000237661 0.0974926 1.71597e-06 272.829 
-0.25 -0.47 -0.665521 0.0809329 0.0975865 0.0975531 0.000287096 0.0974573 1.71462e-06 272.946 
-0.25 -0.45 -0.765747 0.146918 0.0973173 0.0973923 0.000186496 0.0972504 1.70874e-06 273.303 
-0.25 -0.37 -1.61085 0.674107 0.0975379 0.0973586 0.000102425 0.0975016 1.7122e-06 273.456 
-0.25 -0.35 -1.55186 0.500586 0.0976318 0.0972613 0.000136563 0.0974555 1.71445e-06 272.968 
-0.25 -0.33 -1.66365 0.925667 0.0975814 0.0971499 7.90164e-05 0.0974571 1.71314e-06 273.181 
-0.25 -0.25 -2.35139 1.79483 0.097893 0.0973214 3.25217e-05 0.0976654 1.716e-06 273.308 
-0.49 -0.25 0.108403 0.760299 0.0976612 0.0973409 -0.000104958 0.0975103 1.71271e-06 273.4 
-0.47 -0.25 0.0253706 0.655481 0.097542 0.0971929 -0.000178014 0.0974029 1.71222e-06 273.175 
-0.49 -0.23 -0.0615461 0.627271 0.0974195 0.0972557 -0.000162499 0.0972999 1.71024e-06 273.202 
-0.47 -0.23 0.109875 0.933152 0.0976237 0.0973153 -0.000202512 0.097409 1.71278e-06 273.105 
-0.45 -0.23 -0.0751632 1.26358 0.0975421 0.0970649 -0.000249099 0.0973258 1.71079e-06 273.188 
-0.49 -0.21 -0.0783548 0.834539 0.097666 0.0973865 -0.000195938 0.0976214 1.71542e-06 273.278 
-0.43 -0.23 -0.431364 1.07701 0.0976507 0.0972323 -0.000144284 0.0974014 1.71267e-06 273.1 
-0.47 -0.21 -0.243784 0.71613 0.097531 0.0973908 -0.000120809 0.0975519 1.71569e-06 273.04 
-0.41 -0.23 -0.625883 1.55211 0.0976564 0.0971047 -5.86714e-05 0.0974057 1.71412e-06 272.88 
-0.45 -0.21 -0.0873555 1.25227 0.097596 0.0971273 -0.000285451 0.0974383 1.71397e-06 272.996 
-0.49 -0.19 -0.0125956 1.00836 0.0975925 0.0971814 -0.00022616 0.0974102 1.71461e-06 272.815 
-0.39 -0.23 -0.594307 1.24145 0.0976185 0.0970875 -3.36586e-05 0.097363 1.71459e-06 272.687 
-0.43 -0.21 -0.382221 1.63035 0.0975855 0.0970475 -0.000214896 0.0973358 1.71298e-06 272.866 
-0.47 -0.19 -0.360412 1.00429 0.0977727 0.0974613 -0.000227735 0.0976025 1.71836e-06 272.758 
-0.41 -0.21 -0.531888 1.39355 0.097567 0.0970226 -8.85095e-05 0.0972815 1.71164e-06 272.929 
-0.45 -0.19 -0.857019 1.44268 0.0976634 0.0971621 -0.000235031 0.0974514 1.71293e-06 273.199 
-0.49 -0.17 -0.163566 1.03476 0.0975259 0.0971849 -0.000232506 0.0973704 1.71199e-06 273.121 
-0.39 -0.21 -0.520859 1.37943 0.0976298 0.0969895 -3.31613e-05 0.0973258 1.70922e-06 273.439 
-0.43 -0.19 -0.560836 1.43653 0.0976945 0.0969592 -0.000179073 0.0974174 1.71132e-06 273.361 
-0.47 -0.17 -0.296499 1.25886 0.0975363 0.0973635 -0.00023849 0.0974709 1.71421e-06 273.05 
-0.41 -0.19 -0.337543 1.38421 0.0977435 0.0969914 -0.000129329 0.0973926 1.71289e-06 273.04 
-0.45 -0.17 -0.195822 1.51826 0.0976873 0.0971913 -0.000262982 0.0974595 1.7131e-06 273.195 
-0.49 -0.15 0.0319937 1.13087 0.0974905 0.0972775 -0.000350729 0.0973641 1.71644e-06 272.396 
-0.39 -0.19 -0.97049 1.92374 0.0978383 0.0970005 -0.000105502 0.0973371 1.70994e-06 273.356 
-0.43 -0.17 -0.337092 1.34825 0.0976286 0.0969833 -0.000187363 0.0973918 1.71103e-06 273.335 
-0.47 -0.15 -0.202864 1.3921 0.0976261 0.0973132 -0.000336262 0.0974945 1.71471e-06 273.036 
-0.41 -0.17 -0.732366 1.89896 0.0976501 0.0969048 -0.000239683 0.0972406 1.71066e-06 272.969 
-0.45 -0.15 -0.285501 1.4364 0.0975624 0.0971602 -0.000224485 0.097347 1.71266e-06 272.949 
-0.39 -0.17 -1.02737 2.23948 0.0976181 0.0968799 -0.000107161 0.0972696 1.7097e-06 273.204 
-0.43 -0.15 -0.347278 1.69169 0.0976136 0.0968669 -0.000149145 0.0972515 1.71007e-06 273.094 
-0.41 -0.15 -0.905217 2.22859 0.0975519 0.0969104 -0.000176924 0.0972117 1.711e-06 272.834 
-0.39 -0.15 -1.02612 2.38066 0.0976264 0.0967785 -0.000130047 0.097271 1.71066e-06 273.055 
-0.43 -0.25 -0.331648 1.05373 0.0977084 0.097163 -0.000109224 0.0975064 1.71317e-06 273.315 
-0.41 -0.25 -0.46061 1.28938 0.0977087 0.097205 -0.000129745 0.0975033 1.71433e-06 273.121 
-0.39 -0.25 -0.736137 1.24848 0.0977525 0.0970511 -5.82244e-05 0.0973687 1.7141e-06 272.781 
-0.37 -0.23 -0.633418 1.63645 0.0976264 0.0969842 -1.59303e-05 0.0973643 1.71496e-06 272.632 
-0.35 -0.23 -1.24256 1.69631 0.0976252 0.0970473 -6.46062e-05 0.0973434 1.71454e-06 272.64 
-0.33 -0.23 -1.54315 1.70232 0.0974965 0.09701 -6.50851e-05 0.0972689 1.71035e-06 273.099 
-0.37 -0.21 -0.966995 2.11093 0.0976662 0.0970175 -4.50859e-05 0.0973975 1.71188e-06 273.215 
-0.35 -0.21 -1.26901 2.19713 0.0976755 0.0970789 -9.74491e-05 0.0973568 1.71277e-06 272.959 
-0.33 -0.21 -1.43704 1.95838 0.0977973 0.0970227 -6.94408e-06 0.0974151 1.71411e-06 272.91 
-0.37 -0.19 -1.19341 2.19637 0.0978664 0.0970295 -5.80569e-05 0.0975451 1.71389e-06 273.308 
-0.35 -0.19 -1.27435 2.34655 0.097736 0.0969976 4.54263e-05 0.0973649 1.71437e-06 272.727 
-0.33 -0.19 -1.38135 2.10623 0.0976149 0.0969153 7.29818e-05 0.097282 1.71052e-06 273.108 
-0.37 -0.17 -1.10747 2.52581 0.097612 0.0969478 -2.33584e-05 0.0973403 1.71089e-06 273.212 
-0.35 -0.17 -1.55283 2.34202 0.0976696 0.0969871 0.000108269 0.0973509 1.70937e-06 273.485 
-0.33 -0.17 -1.8242 2.39955 0.0977371 0.0970092 1.59089e-05 0.0973572 1.7105e-06 273.323 
-0.37 -0.15 -1.10559 2.71542 0.0975724 0.0968043 -5.66932e-05 0.0971817 1.70727e-06 273.346 
-0.35 -0.15 -1.35063 2.70128 0.0976467 0.0970111 -5.19063e-05 0.0973598 1.70979e-06 273.443 
-0.33 -0.15 -1.63565 2.6511 0.0976517 0.0970065 5.55501e-05 0.0972499 1.70907e-06 273.249 
-0.35 -0.13 -1.46053 3.02286 0.0976587 0.0968238 -4.46416e-05 0.0972162 1.71047e-06 272.931 
-0.33 -0.13 -1.79742 2.86134 0.0976543 0.0968902 8.85292e-05 0.0973002 1.71257e-06 272.833 
-0.33 -0.09 -1.8834 3.49214 0.0973939 0.0965611 5.58574e-05 0.0969836 1.70871e-06 272.559 
-0.37 -0.13 -1.61908 2.71131 0.0976345 0.0968871 -0.000138444 0.0971782 1.70975e-06 272.94 
-0.37 -0.11 -1.53324 2.78482 0.0975001 0.0967237 -0.00012945 0.0970608 1.70758e-06 272.956 
-0.35 -0.11 -1.79433 3.15492 0.0974267 0.0967729 -4.80133e-05 0.0971412 1.70888e-06 272.974 
-0.33 -0.11 -1.86021 3.30808 0.0974156 0.0966795 0.000112552 0.0971255 1.71124e-06 272.554 
-0.35 -0.09 -1.5978 3.22119 0.0974326 0.0966714 2.14886e-07 0.0970584 1.708e-06 272.883 
-0.49 -0.13 0.00373149 1.29948 0.0973865 0.0972508 -0.000472899 0.0972847 1.71091e-06 273.054 
-0.47 -0.13 -0.0215697 1.54947 0.0974185 0.0971129 -0.000343423 0.0972899 1.71071e-06 273.099 
-0.45 -0.13 -0.241292 1.54418 0.0975377 0.0971394 -0.00018943 0.0972755 1.71249e-06 272.776 
-0.49 -0.11 0.0265079 1.14494 0.0976826 0.097264 -0.000385274 0.0974969 1.71533e-06 272.944 
-0.43 -0.13 -0.793816 2.02732 0.0975322 0.0967871 -0.000233098 0.0971816 1.70818e-06 273.2 
-0.47 -0.11 -0.0969535 1.72765 0.0976211 0.0970543 -0.000333361 0.0973673 1.71262e-06 273.013 
-0.41 -0.13 -0.952276 2.64814 0.0975695 0.0969657 -0.000244908 0.0972811 1.71134e-06 272.975 
-0.45 -0.11 -0.470912 2.12119 0.097465 0.0969533 -0.000251721 0.0972275 1.71014e-06 273.015 
-0.49 -0.09 -0.117587 1.26886 0.0974195 0.0971745 -0.000355484 0.0972652 1.71118e-06 272.955 
-0.39 -0.13 -1.38094 2.46737 0.0975967 0.0967957 -0.00011215 0.097231 1.71011e-06 273.03 
-0.43 -0.11 -0.82149 2.33862 0.0974221 0.0968487 -0.000251845 0.0971956 1.70754e-06 273.343 
-0.47 -0.09 -0.433192 2.04574 0.0974264 0.0969547 -0.00032449 0.0971368 1.7086e-06 273.007 
-0.41 -0.11 -1.03567 2.93349 0.0974807 0.0968593 -0.000265867 0.0971969 1.70865e-06 273.168 
-0.45 -0.09 -0.450913 2.19835 0.0974666 0.0968866 -0.000232081 0.0972536 1.71077e-06 272.988 
-0.39 -0.11 -1.25447 2.82685 0.0974677 0.0968161 -0.000111002 0.0971285 1.70848e-06 273.003 
-0.43 -0.09 -0.573522 2.6122 0.0975936 0.097016 -0.000307211 0.0972582 1.70814e-06 273.422 
-0.41 -0.09 -0.86099 3.13693 0.0973929 0.0966175 -0.000202288 0.0969804 1.70568e-06 273.034 
-0.39 -0.09 -0.959425 2.91838 0.0975083 0.0967771 -0.000145297 0.097071 1.70888e-06 272.777 
-0.37 -0.09 -1.31166 3.3723 0.097474 0.0967503 -7.62181e-05 0.0970627 1.70767e-06 272.947 
-0.35 -0.03 -1.81551 4.0512 0.0974468 0.0964742 -7.26169e-05 0.0970164 1.70487e-06 273.265 
-0.37 -0.07 -1.33255 3.3868 0.0974271 0.0966324 -8.31718e-05 0.0970823 1.70852e-06 272.866 
-0.41 -0.05 -0.945173 3.41935 0.0972836 0.0966027 -0.000242938 0.0969621 1.70509e-06 273.077 
-0.45 -0.03 -0.338977 2.98298 0.0972781 0.096604 -0.000388423 0.0970046 1.70628e-06 273.005 
-0.35 -0.07 -1.64813 3.61754 0.0975586 0.0965459 1.33614e-05 0.0970848 1.70852e-06 272.873 
-0.39 -0.05 -0.906567 3.52096 0.0973463 0.0965971 -0.000224013 0.0970354 1.70897e-06 272.662 
-0.43 -0.03 -0.629656 3.35271 0.097423 0.0967585 -0.000195469 0.097104 1.70755e-06 273.083 
-0.33 -0.07 -1.71744 3.47453 0.0975584 0.0966372 7.3561e-05 0.0971033 1.7096e-06 272.754 
-0.37 -0.05 -1.4651 3.7746 0.0973511 0.0966079 -9.90587e-05 0.0969702 1.7075e-06 272.715 
-0.41 -0.03 -1.01933 3.42774 0.0974596 0.0967327 -0.000166713 0.0970897 1.70708e-06 273.118 
-0.35 -0.05 -1.6446 3.85407 0.0973045 0.0963497 1.28452e-06 0.0968611 1.70582e-06 272.676 
-0.39 -0.03 -1.46275 3.75208 0.0972843 0.0964822 -0.000138642 0.0968306 1.70647e-06 272.487 
-0.33 -0.05 -2.12531 3.97518 0.0975136 0.0965906 6.35814e-05 0.0971014 1.71002e-06 272.681 
-0.37 -0.03 -1.37303 4.1757 0.0973724 0.0965059 -0.000140282 0.0969808 1.70708e-06 272.812 
-0.33 -0.03 -1.97677 4.24476 0.0973634 0.0964654 -5.04032e-06 0.0969475 1.70535e-06 272.994 
-0.33 -0.01 -2.05964 4.13626 0.097452 0.0963136 -4.08368e-05 0.0968764 1.70439e-06 272.948 
-0.49 -0.07 -0.212205 1.50472 0.0972982 0.0970736 -0.000428264 0.0971754 1.70964e-06 272.949 
-0.47 -0.07 -0.463775 2.25949 0.0973784 0.0968143 -0.000334732 0.0971081 1.70817e-06 272.996 
-0.45 -0.07 -0.585721 2.23653 0.0974101 0.0968857 -0.000345519 0.097135 1.70933e-06 272.885 
-0.49 -0.05 -0.0918749 1.88727 0.0973785 0.0968812 -0.000498858 0.0971107 1.70854e-06 272.943 
-0.43 -0.07 -0.585788 2.73465 0.0974768 0.0969415 -0.000281784 0.097177 1.70783e-06 273.244 
-0.47 -0.05 -0.00342009 2.25897 0.0974019 0.0969348 -0.000459272 0.0972016 1.71135e-06 272.75 
-0.41 -0.07 -0.799519 3.32306 0.0975633 0.0966459 -0.000173954 0.0970346 1.70796e-06 272.821 
-0.45 -0.05 -0.372866 2.53767 0.0974183 0.0968056 -0.00031624 0.097198 1.71029e-06 272.909 
-0.49 -0.03 -0.0397321 2.02618 0.0973783 0.0968289 -0.000513558 0.0971473 1.70888e-06 272.992 
-0.39 -0.07 -1.10352 3.43131 0.0975189 0.0967068 -0.000214035 0.0970355 1.70707e-06 272.966 
-0.43 -0.05 -0.888743 2.92191 0.0973624 0.0969434 -0.000252523 0.0971615 1.70898e-06 273.016 
-0.47 -0.03 -0.00617738 2.30649 0.0974092 0.0968916 -0.000419649 0.097075 1.70823e-06 272.892 
-0.27 -0.07 -2.85652 3.91079 0.0976252 0.096777 0.000212774 0.0972052 1.70883e-06 273.163 
-0.31 -0.05 -2.30037 3.77029 0.0975948 0.096719 0.000102832 0.0971674 1.71047e-06 272.794 
-0.27 -0.09 -2.30736 3.50791 0.0975919 0.0969225 0.000227921 0.0972845 1.70886e-06 273.38 
-0.31 -0.07 -1.99706 3.53134 0.0974828 0.0967397 0.000119212 0.0972178 1.71113e-06 272.831 
-0.29 -0.07 -2.52193 3.81564 0.0975109 0.0967735 0.000159221 0.0971469 1.7072e-06 273.26 
-0.25 -0.07 -2.81281 3.23033 0.0975983 0.0971119 0.000213437 0.0973521 1.71142e-06 273.161 
-0.29 -0.05 -2.62526 4.15161 0.0976241 0.0967106 9.50377e-05 0.0971411 1.70755e-06 273.186 
-0.27 -0.05 -2.51121 3.96659 0.0975779 0.0967242 0.000103765 0.0971737 1.70898e-06 273.05 
-0.31 -0.03 -2.39665 4.12364 0.0973484 0.0967594 1.72564e-05 0.0971101 1.7108e-06 272.581 
-0.25 -0.05 -2.72031 3.54788 0.0975125 0.0969695 0.000283215 0.0972213 1.71068e-06 272.913 
-0.29 -0.03 -2.39347 4.16637 0.0974383 0.096686 8.28121e-05 0.0970671 1.70767e-06 272.959 
-0.27 -0.03 -2.5855 3.96945 0.0974508 0.096604 0.000174768 0.0971763 1.70788e-06 273.233 
-0.31 -0.01 -2.32398 4.67129 0.0974621 0.096768 2.14281e-08 0.0971769 1.71025e-06 272.856 
-0.25 -0.03 -2.73673 3.94501 0.0974413 0.0968736 0.000289652 0.0971849 1.71173e-06 272.642 
-0.29 -0.01 -2.61796 4.26371 0.097348 0.0965809 0.000144237 0.0970639 1.70787e-06 272.918 
-0.27 -0.01 -2.88939 4.17213 0.0972292 0.0965432 0.000150682 0.0971018 1.70886e-06 272.867 
-0.33 -0.25 -1.04896 1.41108 0.0978621 0.0970706 2.769e-05 0.0974549 1.71456e-06 272.95 
-0.31 -0.25 -1.50761 1.40158 0.0978736 0.097201 -2.92129e-05 0.0975634 1.71592e-06 273.036 
-0.29 -0.25 -1.83171 1.97782 0.0977272 0.097025 0.000174916 0.0973934 1.71243e-06 273.117 
-0.27 -0.25 -2.17329 2.04429 0.0977662 0.09714 0.00019926 0.0974831 1.71381e-06 273.147 
-0.29 -0.11 -2.4587 3.37232 0.0976789 0.096901 0.000131097 0.0972842 1.71187e-06 272.898 
-0.27 -0.11 -2.77546 3.12343 0.0974762 0.0968702 0.00025684 0.0971734 1.70732e-06 273.315 
-0.31 -0.09 -2.00717 3.18325 0.097478 0.0969173 6.38778e-05 0.0972589 1.71069e-06 273.016 
-0.29 -0.09 -1.89327 3.6703 0.0974502 0.0966987 0.000188814 0.0970862 1.70752e-06 273.038 
-0.31 -0.23 -1.64686 1.8545 0.0975107 0.097112 9.73883e-05 0.0973789 1.71251e-06 273.062 
-0.29 -0.23 -1.9631 2.17058 0.0976617 0.096932 8.02792e-05 0.0973159 1.71131e-06 273.078 
-0.27 -0.23 -1.79818 2.12396 0.0977542 0.0972415 8.08184e-05 0.0975324 1.71368e-06 273.306 
-0.31 -0.21 -1.79679 1.97803 0.0977578 0.0970938 3.73334e-05 0.0973837 1.71266e-06 273.053 
-0.29 -0.21 -1.69284 2.1205 0.0976758 0.0968791 -9.78248e-06 0.0973396 1.71177e-06 273.07 
-0.27 -0.21 -1.78797 2.40745 0.0976646 0.0971295 0.000110774 0.0974221 1.71251e-06 273.184 
-0.31 -0.19 -1.54119 2.342 0.097695 0.0970577 6.27624e-07 0.0973032 1.711e-06 273.091 
-0.25 -0.21 -2.13426 2.29582 0.0978119 0.0971504 0.000203433 0.0973826 1.71197e-06 273.159 
-0.29 -0.19 -1.80494 2.17557 0.0976349 0.0969363 6.41912e-06 0.0973187 1.71212e-06 272.956 
-0.27 -0.19 -2.06882 2.41305 0.0975849 0.097035 9.03776e-05 0.0973289 1.7117e-06 273.051 
-0.31 -0.17 -2.03857 2.4931 0.097666 0.0970173 6.07397e-05 0.0973303 1.71109e-06 273.152 
-0.25 -0.19 -2.24422 2.63128 0.0974952 0.0969972 0.000171813 0.097235 1.71363e-06 272.481 
-0.29 -0.17 -2.13623 2.46202 0.0975003 0.0967654 0.000150349 0.0972178 1.70898e-06 273.174 
-0.27 -0.17 -2.47154 2.81674 0.0975568 0.0970693 0.000118288 0.0973394 1.71139e-06 273.13 
-0.31 -0.15 -1.83031 2.59747 0.0975872 0.0969123 0.000109486 0.0972671 1.71145e-06 272.919 
-0.25 -0.17 -2.75474 2.63054 0.0974829 0.0969182 0.000160614 0.0971532 1.70978e-06 272.865 
-0.29 -0.15 -2.1641 2.73976 0.0976833 0.0969765 9.78045e-05 0.0973484 1.71148e-06 273.142 
-0.27 -0.15 -2.36735 2.94879 0.097609 0.0969031 0.000209386 0.0972642 1.71072e-06 273.026 
-0.31 -0.13 -2.1705 2.87191 0.0975339 0.0969484 0.000248137 0.0972967 1.71056e-06 273.143 
-0.25 -0.15 -2.44206 2.71205 0.0975024 0.0969468 0.000203894 0.0971564 1.70887e-06 273.018 
-0.29 -0.13 -2.43046 3.13803 0.0974445 0.0969349 0.000167715 0.0972061 1.70967e-06 273.03 
-0.27 -0.13 -2.51494 2.7874 0.0974724 0.0967606 0.000121589 0.0970073 1.70668e-06 272.95 
-0.31 -0.11 -2.02486 3.05501 0.0975738 0.0969482 0.000152258 0.0972624 1.70963e-06 273.195 
-0.25 -0.13 -2.53243 2.88718 0.0976364 0.0969543 0.000276479 0.097272 1.71093e-06 273.014 
-0.25 -0.23 -2.01644 1.97146 0.0976413 0.09726 0.00014065 0.0974114 1.71333e-06 273.024 
-0.25 -0.11 -2.91895 2.90924 0.0974347 0.0969314 0.000159893 0.0971251 1.70861e-06 272.972 
-0.25 -0.09 -2.80513 2.9695 0.0975832 0.0969679 0.000172635 0.097356 1.70934e-06 273.504 
-0.25 -0.01 -3.1664 4.29154 0.0973381 0.0968901 0.000209012 0.0971034 1.71069e-06 272.579 
-0.23 -0.49 -0.647951 0.165139 0.0973303 0.0973918 0.000233666 0.0974219 1.71393e-06 272.957 
-0.21 -0.49 -0.842442 -0.0856702 0.0973336 0.0970431 0.000229489 0.097279 1.71078e-06 273.057 
-0.19 -0.49 -0.817301 -0.0664931 0.0973705 0.0973859 0.000232221 0.097381 1.7137e-06 272.878 
-0.23 -0.47 -0.945547 -0.122666 0.0974906 0.0973754 0.000290161 0.097438 1.71625e-06 272.632 
-0.17 -0.49 -0.566251 -0.282783 0.0973359 0.0974814 0.000264693 0.0974611 1.71452e-06 272.973 
-0.21 -0.47 -0.912636 0.0342145 0.0974317 0.0970922 0.000246435 0.0973134 1.71096e-06 273.126 
-0.15 -0.49 -0.423144 0.0751487 0.0974183 0.0975178 0.000255224 0.0975138 1.71574e-06 272.927 