ITEM: TIMESTEP
949500
ITEM: NUMBER OF CELLS
2500
ITEM: BOX BOUNDS ss ss pp
-0.5 0.5
-0.5 0.5
-0.5 0.5
ITEM: CELLS xc yc f_U[*] f_V[*] f_Tau[1] f_Tau[2] f_Tau[3] f_Press[*] f_Mrho[*] f_Ttra[*] 
-0.49 -0.49 -0.109592 0.019262 0.0487017 0.0485852 -7.40635e-05 0.048718 8.55898e-07 273.337 
-0.47 -0.49 -0.0664415 0.0362618 0.0486546 0.048584 -2.13591e-05 0.0486314 8.55354e-07 273.024 
-0.45 -0.49 -0.122031 -0.01613 0.0486454 0.0485557 3.02193e-05 0.0485906 8.55469e-07 272.758 
-0.49 -0.47 0.0664629 -0.00586774 0.0486932 0.0485847 -2.76787e-05 0.0486454 8.54931e-07 273.238 
-0.43 -0.49 -0.180703 0.0248589 0.0486487 0.0485763 -4.9281e-06 0.0485931 8.5495e-07 272.938 
-0.47 -0.47 -0.000757216 0.0725127 0.0487038 0.0485535 -2.24971e-05 0.0486737 8.54854e-07 273.421 
-0.41 -0.49 -0.238297 0.0185838 0.0486782 0.0485349 5.46402e-05 0.0486008 8.55446e-07 272.823 
-0.45 -0.47 0.00760202 0.120251 0.0487054 0.0485504 2.1513e-05 0.0486299 8.55073e-07 273.105 
-0.49 -0.45 -0.00619177 0.01239 0.048746 0.048589 -2.28172e-05 0.0486649 8.55531e-07 273.156 
-0.39 -0.49 -0.240738 0.00902752 0.0486922 0.0484778 -4.89792e-06 0.0485835 8.54556e-07 273.01 
-0.43 -0.47 -0.0254988 -0.00653556 0.0486888 0.0485576 4.54683e-06 0.0486288 8.54979e-07 273.129 
-0.47 -0.45 -0.0778718 0.160245 0.0487208 0.0485184 1.81609e-05 0.0486344 8.55103e-07 273.121 
-0.37 -0.49 -0.321205 0.113036 0.0487211 0.04855 -4.5916e-06 0.0486342 8.55923e-07 272.858 
-0.41 -0.47 -0.236458 0.258406 0.0486837 0.0485163 2.54183e-05 0.0486251 8.55897e-07 272.816 
-0.45 -0.45 -0.19083 0.0612577 0.0487552 0.0485523 -7.41544e-06 0.0486659 8.56327e-07 272.907 
-0.49 -0.43 -0.0657787 0.0928634 0.0487184 0.0485462 -3.17199e-05 0.0486451 8.56256e-07 272.814 
-0.35 -0.49 -0.40313 -0.00499766 0.0487186 0.0485622 6.43291e-05 0.0486225 8.55527e-07 272.919 
-0.39 -0.47 -0.505439 0.156058 0.0487185 0.0485131 1.31295e-05 0.0486228 8.55405e-07 272.96 
-0.43 -0.45 -0.342198 0.306284 0.048812 0.0485603 1.33514e-05 0.0486698 8.5497e-07 273.363 
-0.47 -0.43 -0.221628 0.285717 0.0487523 0.0485207 -2.77601e-05 0.0486782 8.56582e-07 272.895 
-0.37 -0.47 -0.502124 0.0882588 0.0486749 0.048483 7.44864e-06 0.0485686 8.54492e-07 272.947 
-0.41 -0.45 -0.372906 0.356404 0.0487703 0.0485195 -2.35549e-06 0.0486421 8.55411e-07 273.066 
-0.45 -0.43 -0.363807 0.323677 0.0487668 0.0486052 -4.80352e-05 0.0486812 8.56441e-07 272.957 
-0.49 -0.41 -0.0723181 0.352052 0.0487514 0.0485057 -1.32903e-05 0.048615 8.5611e-07 272.691 
-0.35 -0.47 -0.627609 0.0563121 0.048709 0.0485259 7.3505e-05 0.0486326 8.55429e-07 273.007 
-0.39 -0.45 -0.446637 0.191054 0.0487473 0.0484851 3.31941e-05 0.0486115 8.55516e-07 272.861 
-0.43 -0.43 -0.434217 0.328255 0.0487797 0.048493 9.09014e-07 0.0486429 8.55907e-07 272.912 
-0.47 -0.41 -0.346885 0.394752 0.0487757 0.0486051 -5.97141e-05 0.0487221 8.57397e-07 272.882 
-0.37 -0.45 -0.684947 0.321529 0.0487119 0.0485182 3.81216e-05 0.0485984 8.55024e-07 272.944 
-0.41 -0.43 -0.493311 0.266753 0.0488062 0.0485222 1.80479e-05 0.0486628 8.56066e-07 272.974 
-0.45 -0.41 -0.357315 0.327154 0.0487978 0.0485302 -2.75132e-05 0.0486807 8.56495e-07 272.937 
-0.49 -0.39 -0.0135826 0.392529 0.0487768 0.0485395 -2.64566e-05 0.0486591 8.56437e-07 272.834 
-0.35 -0.45 -0.750674 0.168845 0.0487101 0.0484559 4.10766e-05 0.0485647 8.55123e-07 272.724 
-0.39 -0.43 -0.436931 0.36001 0.0487994 0.0484536 1.40387e-05 0.0486124 8.54861e-07 273.075 
-0.43 -0.41 -0.415235 0.405015 0.0487584 0.048527 -1.62656e-05 0.0486502 8.55624e-07 273.043 
-0.47 -0.39 0.0840409 0.423979 0.0487821 0.0486164 -6.85288e-05 0.048677 8.56924e-07 272.779 
-0.37 -0.43 -0.612782 0.410326 0.0488277 0.0485002 5.88709e-05 0.0486356 8.55958e-07 272.855 
-0.41 -0.41 -0.546669 0.276795 0.0487446 0.0484638 1.86314e-05 0.0485909 8.54739e-07 272.993 
-0.45 -0.39 -0.0458704 0.629155 0.048753 0.0484451 -3.31742e-05 0.0486105 8.55254e-07 272.939 
-0.35 -0.43 -0.677321 0.259543 0.0488411 0.0485156 2.13203e-06 0.0486427 8.56437e-07 272.742 
-0.39 -0.41 -0.528621 0.35396 0.0487909 0.048484 9.91984e-06 0.0486009 8.55358e-07 272.852 
-0.43 -0.39 -0.237298 0.404072 0.0487997 0.048545 2.85529e-06 0.0486817 8.56337e-07 272.993 
-0.37 -0.41 -0.490886 0.633709 0.0488016 0.0484759 9.81207e-06 0.0486139 8.55523e-07 272.872 
-0.41 -0.39 -0.355781 0.570623 0.0487614 0.048441 -1.48531e-05 0.0486173 8.55518e-07 272.893 
-0.35 -0.41 -0.913253 0.43581 0.0487518 0.0485241 8.84335e-06 0.0485859 8.55544e-07 272.708 
-0.39 -0.39 -0.646901 0.324266 0.0487787 0.0484775 8.06439e-06 0.0486207 8.55991e-07 272.761 
-0.37 -0.39 -0.689748 0.617468 0.0487826 0.0484723 2.39417e-05 0.0485983 8.54704e-07 273.046 
-0.35 -0.39 -0.610423 0.734805 0.0488056 0.0485103 8.45621e-05 0.0486229 8.55601e-07 272.898 
-0.37 -0.37 -0.784401 0.520005 0.0488169 0.0484708 2.2348e-06 0.0486244 8.54728e-07 273.185 
-0.33 -0.49 -0.554898 0.0461003 0.0486708 0.048504 8.1322e-05 0.0486025 8.55092e-07 272.946 
-0.33 -0.47 -0.598565 0.250691 0.0486845 0.0485298 7.44048e-05 0.0486169 8.55035e-07 273.045 
-0.33 -0.43 -0.705689 0.0466925 0.0487907 0.0485192 3.39313e-05 0.0486176 8.56164e-07 272.689 
-0.49 -0.37 -0.00951364 0.333196 0.0488135 0.04861 -3.6895e-05 0.0486984 8.56432e-07 273.056 
-0.47 -0.37 -0.0789289 0.491742 0.0488206 0.0485567 -3.95072e-05 0.048694 8.56438e-07 273.03 
-0.45 -0.37 -0.224444 0.628123 0.048804 0.0484805 -1.901e-05 0.0486482 8.54908e-07 273.261 
-0.49 -0.35 0.0184237 0.468964 0.048884 0.0486135 -5.95537e-05 0.0487355 8.57122e-07 273.045 
-0.43 -0.37 -0.392632 0.734224 0.0487954 0.0485058 -2.38379e-05 0.048661 8.55146e-07 273.257 
-0.47 -0.35 -0.050098 0.628629 0.0488794 0.0485428 -1.17174e-05 0.0487142 8.56246e-07 273.204 
-0.45 -0.35 -0.264096 0.816271 0.0488455 0.0484733 1.83377e-06 0.0486962 8.55741e-07 273.264 
-0.49 -0.33 -0.0947791 0.465823 0.048832 0.0485375 -2.69456e-05 0.0487078 8.5717e-07 272.874 
-0.39 -0.37 -0.632087 0.577514 0.048773 0.0484272 8.32487e-06 0.0485807 8.55573e-07 272.67 
-0.43 -0.35 -0.163311 0.588632 0.0488486 0.0484915 -5.13168e-05 0.0486806 8.56061e-07 273.075 
-0.47 -0.33 -0.165559 0.716053 0.0488771 0.0485374 -1.58237e-05 0.0486867 8.56116e-07 273.091 
-0.41 -0.35 -0.376437 0.828683 0.0488265 0.0484378 4.47916e-05 0.0486261 8.55723e-07 272.877 
-0.45 -0.33 -0.119146 0.8594 0.0488963 0.0484752 -3.26433e-05 0.0486693 8.55866e-07 273.073 
-0.49 -0.31 -0.0447856 0.589328 0.0487384 0.048494 -8.40518e-05 0.0485826 8.54768e-07 272.937 
-0.39 -0.35 -0.558515 0.855538 0.0488702 0.0484821 -1.10942e-05 0.0486541 8.5561e-07 273.07 
-0.43 -0.33 -0.354748 0.820401 0.0488804 0.0484621 2.78498e-05 0.0486508 8.55225e-07 273.174 
-0.47 -0.31 -0.238868 0.880869 0.0487658 0.0485173 -5.25333e-05 0.048613 8.55013e-07 273.03 
-0.37 -0.35 -0.871877 0.777176 0.0487718 0.0484125 4.53755e-05 0.0485827 8.55288e-07 272.772 
-0.41 -0.33 -0.536817 0.917477 0.0488638 0.0484644 -6.68637e-06 0.0486662 8.5591e-07 273.042 
-0.45 -0.31 -0.21903 0.776795 0.0488079 0.0484754 -4.47017e-05 0.0486282 8.55274e-07 273.032 
-0.49 -0.29 -0.119745 0.872121 0.0487425 0.0484588 -9.26584e-05 0.0485884 8.55243e-07 272.818 
-0.35 -0.35 -1.06161 0.837831 0.0487765 0.0484139 3.25013e-05 0.0486125 8.54958e-07 273.045 
-0.39 -0.33 -0.702409 1.12186 0.0488165 0.0484176 4.16827e-05 0.0486045 8.55478e-07 272.833 
-0.43 -0.31 -0.328626 1.13884 0.0487935 0.0484293 -3.59612e-05 0.0486164 8.5506e-07 273.034 
-0.47 -0.29 -0.237645 0.879597 0.0487544 0.0484991 -7.1447e-05 0.0486185 8.55435e-07 272.926 
-0.37 -0.33 -0.616306 1.03919 0.0488656 0.0484562 4.00754e-05 0.048652 8.55383e-07 273.131 
-0.41 -0.31 -0.64891 1.04294 0.0488516 0.048404 3.42593e-05 0.0486411 8.55921e-07 272.898 
-0.45 -0.29 -0.291341 0.803125 0.0487756 0.0484365 -3.39536e-05 0.0485936 8.54787e-07 272.993 
-0.49 -0.27 -0.157392 0.986958 0.0488065 0.048429 -8.05627e-05 0.0486424 8.55899e-07 272.912 
-0.35 -0.33 -0.744093 0.804561 0.048859 0.0484264 -1.45045e-06 0.0486579 8.5582e-07 273.024 
-0.39 -0.31 -0.572627 1.1515 0.0489088 0.0484633 1.90448e-05 0.0486816 8.56117e-07 273.062 
-0.43 -0.29 -0.381426 1.25172 0.0487827 0.0484053 -3.18053e-05 0.0485891 8.55153e-07 272.851 
-0.47 -0.27 -0.200687 0.919566 0.0488346 0.0484841 -8.54059e-05 0.0486971 8.56383e-07 273.065 
-0.37 -0.31 -0.713488 0.972059 0.0488994 0.0484415 7.16101e-06 0.0486676 8.55938e-07 273.041 
-0.41 -0.29 -0.265447 1.13761 0.04881 0.0483525 -4.85904e-05 0.0485896 8.54441e-07 273.081 
-0.45 -0.27 -0.273649 1.03578 0.0488515 0.0484075 -6.42832e-05 0.0486279 8.56215e-07 272.73 
-0.35 -0.31 -0.923907 1.14492 0.0488912 0.0484341 6.68725e-05 0.0486749 8.55419e-07 273.248 
-0.39 -0.29 -0.450582 1.34279 0.0488337 0.0484834 -2.13172e-06 0.0486354 8.54655e-07 273.27 
-0.43 -0.27 -0.478349 1.24476 0.0488472 0.0484063 -6.01119e-06 0.0486088 8.55191e-07 272.95 
-0.37 -0.29 -0.752119 1.01356 0.0488419 0.0484179 1.81986e-05 0.0486556 8.54539e-07 273.421 
-0.41 -0.27 -0.562478 1.266 0.0488293 0.0483818 -4.2633e-05 0.0485718 8.54945e-07 272.82 
-0.35 -0.29 -1.06954 1.49451 0.0488526 0.0484026 6.06754e-05 0.0486155 8.54748e-07 273.129 
-0.39 -0.27 -0.927812 1.49119 0.0488052 0.048421 -2.84065e-05 0.0486443 8.55234e-07 273.135 
-0.33 -0.29 -1.04629 1.36908 0.0488868 0.0484034 4.4596e-05 0.048638 8.55222e-07 273.103 
-0.37 -0.27 -1.0899 1.45596 0.0488356 0.0483731 9.21585e-06 0.0486209 8.54943e-07 273.096 
-0.35 -0.27 -1.21628 1.52791 0.0488668 0.0484041 2.72842e-05 0.0486178 8.55883e-07 272.779 
-0.33 -0.27 -1.44375 1.4298 0.0488454 0.0483607 8.17007e-05 0.048574 8.54558e-07 272.956 
-0.41 -0.37 -0.39218 0.706854 0.0488311 0.0484746 -3.90808e-06 0.0486531 8.55725e-07 273.028 
-0.35 -0.37 -0.776406 0.936946 0.0488111 0.0484649 3.0581e-05 0.0486241 8.55578e-07 272.912 
-0.33 -0.37 -0.833144 0.509509 0.0487909 0.0484905 3.46388e-05 0.0486247 8.5492e-07 273.125 
-0.33 -0.35 -1.11714 0.785446 0.0488157 0.0484672 8.41618e-05 0.0486631 8.56003e-07 272.995 
-0.33 -0.31 -1.26888 1.19145 0.0488667 0.0483723 5.78792e-05 0.0486156 8.54983e-07 273.054 
-0.35 -0.25 -1.18452 1.63464 0.0488055 0.0483556 3.21696e-05 0.0485846 8.55206e-07 272.809 
-0.31 -0.49 -0.565813 0.046716 0.0487318 0.0485837 6.98903e-05 0.0486985 8.56057e-07 273.176 
-0.29 -0.49 -0.639478 0.0773839 0.048724 0.0485253 7.51455e-05 0.0486456 8.55142e-07 273.172 
-0.27 -0.49 -0.816637 -0.0117643 0.0487057 0.0484441 0.000134492 0.048569 8.55155e-07 272.737 
-0.31 -0.47 -0.820794 -0.0443086 0.0486957 0.0485648 8.35688e-05 0.0486422 8.54766e-07 273.273 
-0.29 -0.47 -0.725317 0.0511987 0.048694 0.0484551 0.000125099 0.0485994 8.54629e-07 273.076 
-0.27 -0.47 -0.602574 0.139164 0.0487026 0.0484555 8.79041e-05 0.048552 8.54135e-07 272.968 
-0.31 -0.45 -0.60171 0.275249 0.0487988 0.0485173 6.90555e-05 0.0486439 8.55652e-07 273 
-0.29 -0.45 -0.772516 -0.0171065 0.0487902 0.0484702 0.00011708 0.0486334 8.54691e-07 273.247 
-0.27 -0.45 -1.04686 0.359333 0.0487814 0.0484815 0.000112647 0.0486128 8.55004e-07 273.032 
-0.31 -0.43 -0.971248 0.319548 0.0487703 0.0484566 8.16463e-05 0.0486093 8.55926e-07 272.718 
-0.29 -0.43 -1.15282 0.291843 0.0487942 0.0484575 0.000108509 0.0486259 8.55668e-07 272.893 
-0.27 -0.43 -1.14459 0.444043 0.0488027 0.0484881 0.000129633 0.0486346 8.55212e-07 273.088 
-0.31 -0.41 -1.18515 0.463856 0.0487805 0.0484323 0.000102349 0.0486058 8.55043e-07 272.98 
-0.25 -0.43 -1.19422 0.275748 0.0487506 0.0484748 0.000134703 0.0486219 8.53675e-07 273.508 
-0.29 -0.41 -1.2464 0.36276 0.0487728 0.0484592 9.51802e-05 0.0486313 8.55463e-07 272.989 
-0.27 -0.41 -1.31462 0.342706 0.0487714 0.0484511 0.000145241 0.0486101 8.55569e-07 272.836 
-0.31 -0.39 -1.05496 0.556282 0.0488076 0.0484004 7.37283e-05 0.0485935 8.54536e-07 273.073 
-0.25 -0.41 -1.36806 0.394473 0.0487949 0.0484912 0.000111543 0.0486422 8.55051e-07 273.182 
-0.29 -0.39 -1.1872 0.326094 0.048832 0.0484057 0.000106552 0.0486328 8.56167e-07 272.773 
-0.27 -0.39 -1.30883 0.586677 0.0488274 0.048459 0.000144983 0.0486827 8.56198e-07 273.043 
-0.31 -0.37 -1.09596 0.710768 0.048742 0.0483582 7.36795e-05 0.048553 8.54487e-07 272.861 
-0.25 -0.39 -1.53524 0.63439 0.048818 0.0485184 0.000135553 0.0486739 8.55625e-07 273.177 
-0.29 -0.37 -1.28713 0.613281 0.0487553 0.0483747 9.77329e-05 0.0485704 8.55248e-07 272.716 
-0.27 -0.37 -1.53077 0.692963 0.0488375 0.0484468 6.84931e-05 0.0486578 8.55579e-07 273.1 
-0.31 -0.35 -1.26782 0.767926 0.0488586 0.0484032 4.13695e-05 0.0486383 8.55627e-07 272.976 
-0.29 -0.35 -1.2226 0.848061 0.0488566 0.0483421 4.65078e-05 0.0486309 8.55684e-07 272.916 
-0.27 -0.35 -1.42975 0.856593 0.0488453 0.0484387 8.70098e-05 0.0486362 8.55809e-07 272.906 
-0.31 -0.33 -1.10684 0.957844 0.0488457 0.0484074 4.74021e-05 0.0486341 8.55553e-07 272.976 
-0.29 -0.33 -1.52019 0.999549 0.0488151 0.0483105 6.40758e-05 0.0485694 8.54795e-07 272.854 
-0.27 -0.33 -1.52861 0.939219 0.0488176 0.0484085 0.000121295 0.0486012 8.55497e-07 272.809 
-0.31 -0.31 -1.29011 1.07034 0.0488632 0.0483786 7.53356e-05 0.0486236 8.54865e-07 273.136 
-0.29 -0.31 -1.33638 1.15263 0.0488428 0.048318 8.58161e-05 0.0486181 8.55018e-07 273.057 
-0.27 -0.31 -1.68892 1.18664 0.0488029 0.0483671 9.05984e-05 0.0485829 8.54369e-07 273.067 
-0.31 -0.29 -1.3901 1.20891 0.0488328 0.0483182 7.68839e-05 0.0485765 8.53873e-07 273.189 
-0.25 -0.31 -1.82071 1.22594 0.0488069 0.0484257 0.000144193 0.0486322 8.54502e-07 273.301 
-0.29 -0.29 -1.72999 1.36643 0.0488254 0.0483223 8.50172e-05 0.0485785 8.53837e-07 273.211 
-0.27 -0.29 -1.80281 1.28727 0.048877 0.048349 0.000116918 0.0485994 8.54251e-07 273.197 
-0.31 -0.27 -1.54265 1.5313 0.0488315 0.0483272 8.55405e-05 0.0486124 8.5485e-07 273.078 
-0.25 -0.29 -1.96924 1.34145 0.0488916 0.0484201 0.000114491 0.0486506 8.55307e-07 273.147 
-0.29 -0.27 -1.62326 1.64389 0.0488184 0.0482868 0.000125154 0.0485564 8.53771e-07 273.108 
-0.27 -0.27 -1.9011 1.54283 0.0487753 0.048322 8.18437e-05 0.0485608 8.53381e-07 273.258 
-0.25 -0.27 -2.09188 1.43691 0.0487883 0.048366 0.000132124 0.0485931 8.54783e-07 272.991 
-0.33 -0.45 -0.700803 0.0624109 0.0488062 0.0485665 4.5095e-05 0.0486423 8.56205e-07 272.814 
-0.33 -0.41 -1.22845 0.27844 0.0487888 0.0484747 6.44343e-05 0.0485759 8.55192e-07 272.764 
-0.33 -0.39 -0.910998 0.435266 0.0487849 0.0484447 2.84905e-05 0.0485925 8.54956e-07 272.933 
-0.33 -0.33 -0.914487 0.977823 0.0488395 0.0484223 2.47324e-05 0.048629 8.54829e-07 273.179 
-0.25 -0.49 -0.775736 -0.0245686 0.0486677 0.0485109 0.000116293 0.0486179 8.55625e-07 272.862 
-0.25 -0.47 -0.814437 0.130595 0.0487481 0.0485358 9.29191e-05 0.0486312 8.5562e-07 272.938 
-0.25 -0.45 -1.17421 0.149447 0.0487525 0.0484864 8.13422e-05 0.0486266 8.54654e-07 273.221 
-0.25 -0.37 -1.63685 0.718468 0.0488606 0.04852 0.00011969 0.0486869 8.55616e-07 273.252 
-0.25 -0.35 -1.62829 0.870954 0.0488413 0.0484504 0.000124881 0.0486365 8.55285e-07 273.075 
-0.25 -0.33 -1.67777 1.09234 0.0487743 0.0484506 9.85303e-05 0.0486456 8.55334e-07 273.11 
-0.49 -0.25 0.0351606 1.24368 0.0487818 0.0484391 -0.000125759 0.0486532 8.55511e-07 273.096 
-0.47 -0.25 -0.314195 1.00811 0.0488535 0.0484461 -0.000102521 0.0486424 8.55684e-07 272.98 
-0.45 -0.25 -0.490549 1.09089 0.0487993 0.0483703 -5.24888e-05 0.0486255 8.55606e-07 272.91 
-0.49 -0.23 -0.0206864 1.22951 0.0487325 0.0484711 -0.000155025 0.048585 8.54912e-07 272.905 
-0.47 -0.23 -0.0945118 1.31576 0.048733 0.0483564 -0.000140273 0.0485301 8.54432e-07 272.75 
-0.45 -0.23 -0.459436 1.21536 0.0487885 0.0483592 -8.02593e-05 0.0486133 8.54934e-07 273.057 
-0.49 -0.21 -0.171034 1.37214 0.0487482 0.0484668 -0.000176381 0.0486204 8.55918e-07 272.783 
-0.43 -0.23 -0.491095 1.34854 0.0488125 0.0484088 -7.35357e-05 0.0486232 8.5482e-07 273.149 
-0.47 -0.21 -0.338822 1.42295 0.0487771 0.0483081 -0.00015229 0.0485801 8.54739e-07 272.933 
-0.41 -0.23 -0.758012 1.7552 0.0488232 0.0483559 -2.78443e-05 0.0485938 8.54653e-07 273.037 
-0.45 -0.21 -0.241085 1.36071 0.0487929 0.0483044 -8.8743e-05 0.0485853 8.54637e-07 272.994 
-0.49 -0.19 -0.0317464 1.51127 0.0488354 0.0484501 -0.000157683 0.0486367 8.56003e-07 272.847 
-0.39 -0.23 -0.7469 1.87274 0.048831 0.0483332 1.1254e-05 0.0486074 8.54403e-07 273.193 
-0.43 -0.21 -0.6886 1.56053 0.0488247 0.0484191 -5.56163e-05 0.0486357 8.55366e-07 273.045 
-0.47 -0.19 -0.0296207 1.45699 0.0488101 0.0482805 -0.000109076 0.0485732 8.54852e-07 272.858 
-0.41 -0.21 -0.78237 1.90676 0.048813 0.0482956 -3.7978e-05 0.0485882 8.54515e-07 273.05 
-0.45 -0.19 -0.382799 1.70155 0.0488138 0.0483136 -9.31402e-05 0.0485866 8.54045e-07 273.191 
-0.49 -0.17 0.140033 1.34941 0.0487895 0.048424 -0.000162943 0.0486084 8.55723e-07 272.777 
-0.39 -0.21 -0.904067 2.02646 0.0488556 0.0483244 -2.82475e-05 0.0486204 8.55404e-07 272.946 
-0.43 -0.19 -0.694247 1.93204 0.0488173 0.0483626 -0.000112856 0.0486225 8.55182e-07 273.03 
-0.47 -0.17 -0.152442 2.00421 0.0487844 0.048219 -0.000125182 0.0485177 8.53782e-07 272.887 
-0.41 -0.19 -0.869734 1.91219 0.0488461 0.0483035 -4.06292e-05 0.048571 8.54513e-07 272.954 
-0.45 -0.17 -0.363765 1.88977 0.0488157 0.0483233 -0.000144016 0.0485949 8.54472e-07 273.101 
-0.49 -0.15 -0.0447854 1.38589 0.0487053 0.0483075 -0.00015408 0.0485156 8.53816e-07 272.865 
-0.39 -0.19 -0.976942 2.13157 0.0488115 0.0482701 -4.61015e-05 0.0485503 8.54215e-07 272.933 
-0.43 -0.17 -0.551776 2.11439 0.0487923 0.0483054 -8.9269e-05 0.0486004 8.54633e-07 273.08 
-0.47 -0.15 0.149355 1.93955 0.04874 0.0482592 -0.000146723 0.0484812 8.53885e-07 272.649 
-0.41 -0.17 -0.665071 2.06528 0.0487598 0.0482729 -4.72398e-05 0.0485402 8.53113e-07 273.228 
-0.45 -0.15 -0.150295 2.24775 0.0487547 0.048315 -0.000138571 0.0485491 8.53816e-07 273.054 
-0.39 -0.17 -0.84304 2.27941 0.048766 0.0482468 -3.36279e-05 0.0485044 8.53033e-07 273.052 
-0.43 -0.15 -0.32899 2.20841 0.0487551 0.0482056 -5.77535e-05 0.0485144 8.5383e-07 272.853 
-0.41 -0.15 -0.545395 2.30088 0.0487802 0.0482663 -5.30779e-05 0.0485371 8.53629e-07 273.046 
-0.39 -0.15 -0.83236 2.71154 0.0487842 0.0482822 -4.98783e-05 0.0485298 8.54459e-07 272.739 
-0.43 -0.25 -0.362148 1.36178 0.0488199 0.0484344 -2.70225e-05 0.0486172 8.55521e-07 272.892 
-0.41 -0.25 -0.483296 1.53186 0.0488618 0.048345 -3.99128e-05 0.048624 8.55393e-07 272.97 
-0.39 -0.25 -0.815393 1.80473 0.0488627 0.0484224 -1.68502e-05 0.0486418 8.55768e-07 272.95 
-0.33 -0.25 -1.3096 1.71508 0.048805 0.0483231 7.0265e-05 0.0485844 8.54868e-07 272.915 
-0.37 -0.25 -1.10242 1.5261 0.0488087 0.0483444 5.11833e-06 0.0485884 8.55372e-07 272.777 
-0.37 -0.23 -0.93366 1.95239 0.048871 0.0483878 2.47449e-05 0.0486628 8.56059e-07 272.975 
-0.35 -0.23 -1.13317 1.84461 0.0488214 0.0482978 2.66409e-05 0.0485835 8.55238e-07 272.792 
-0.37 -0.21 -0.946044 2.0182 0.0488434 0.0483114 1.84083e-05 0.0486164 8.54983e-07 273.059 
-0.35 -0.21 -1.07797 2.02008 0.0488723 0.0483266 2.79574e-05 0.048603 8.54807e-07 273.04 
-0.33 -0.21 -1.23392 2.14258 0.0488751 0.0482945 4.06139e-05 0.0486012 8.5562e-07 272.77 
-0.37 -0.19 -1.1399 2.1407 0.0488509 0.0483111 1.27921e-06 0.0485824 8.55199e-07 272.799 
-0.35 -0.19 -1.18253 2.09707 0.0488508 0.0482938 3.18691e-05 0.0485537 8.55022e-07 272.694 
-0.33 -0.19 -1.26457 2.34056 0.0488335 0.0482324 7.38865e-05 0.0485604 8.54916e-07 272.765 
-0.37 -0.17 -0.962974 2.34691 0.0487984 0.0482663 -3.80838e-05 0.0485492 8.53602e-07 273.122 
-0.35 -0.17 -1.3508 2.36242 0.0488063 0.0482436 3.8103e-05 0.0485405 8.54274e-07 272.858 
-0.33 -0.17 -1.58044 2.47849 0.048832 0.0482227 5.95654e-05 0.0485324 8.54363e-07 272.784 
-0.37 -0.15 -1.23597 2.49545 0.0487772 0.0482143 -1.21786e-05 0.0484595 8.52592e-07 272.941 
-0.35 -0.15 -1.26576 2.48676 0.0487578 0.0481917 1.76588e-06 0.0484833 8.54065e-07 272.604 
-0.33 -0.15 -1.46725 2.56555 0.0487714 0.0482193 1.34616e-05 0.0484992 8.54462e-07 272.567 
-0.37 -0.13 -1.12492 2.61663 0.048778 0.0481892 5.6848e-06 0.0484828 8.53227e-07 272.869 
-0.35 -0.13 -1.44227 2.89691 0.0487456 0.0481724 4.40285e-06 0.0484521 8.53826e-07 272.504 
-0.33 -0.13 -1.66453 2.69157 0.0487471 0.0482082 5.52904e-05 0.0484504 8.53771e-07 272.513 
-0.37 -0.11 -1.08038 3.08961 0.0487926 0.048177 2.10453e-06 0.0484869 8.52639e-07 273.08 
-0.35 -0.11 -1.54608 2.96283 0.0487705 0.0481812 2.82119e-05 0.0484667 8.53308e-07 272.752 
-0.33 -0.11 -1.72497 2.97249 0.04877 0.0481594 1.0887e-05 0.0484356 8.53041e-07 272.662 
-0.35 -0.09 -1.38944 3.41285 0.0487564 0.0482 2.81942e-05 0.0484854 8.52638e-07 273.072 
-0.49 -0.13 -0.116497 1.46637 0.0486864 0.0482675 -0.000180466 0.048486 8.53719e-07 272.73 
-0.47 -0.13 -0.168365 2.00227 0.0487151 0.0482459 -0.000171861 0.048464 8.53373e-07 272.716 
-0.45 -0.13 -0.135794 2.43329 0.0487359 0.0482847 -0.000150033 0.0484882 8.53377e-07 272.851 
-0.49 -0.11 -0.00374784 1.55156 0.0487351 0.04827 -0.000217464 0.0484917 8.52736e-07 273.076 
-0.43 -0.13 -0.383302 2.47533 0.0487491 0.0481284 -0.000116019 0.0484707 8.52739e-07 272.956 
-0.47 -0.11 -0.322176 2.1939 0.0487109 0.0482396 -0.000177932 0.0484856 8.52991e-07 272.96 
-0.41 -0.13 -0.866366 2.55974 0.0488111 0.0482578 -8.27539e-05 0.0485372 8.53388e-07 273.123 
-0.45 -0.11 -0.427052 2.34079 0.0487459 0.0482295 -0.000155989 0.0485036 8.52604e-07 273.185 
-0.49 -0.09 -0.233163 1.8419 0.0485638 0.0482246 -0.000218429 0.0483987 8.52042e-07 272.774 
-0.39 -0.13 -0.943612 2.91837 0.0488121 0.0482692 -2.49242e-05 0.0485651 8.5416e-07 273.033 
-0.43 -0.11 -0.464123 2.85043 0.0487549 0.048134 -0.000130649 0.0484642 8.52424e-07 273.021 
-0.47 -0.09 -0.40438 2.43588 0.0486317 0.0482506 -0.000220555 0.0484529 8.52553e-07 272.916 
-0.41 -0.11 -0.435799 2.81783 0.0487471 0.0482038 -9.56216e-05 0.0484857 8.53031e-07 272.948 
-0.45 -0.09 -0.635313 2.47412 0.048642 0.0481713 -0.000179784 0.0483805 8.51769e-07 272.759 
-0.39 -0.11 -0.929788 3.07855 0.048743 0.0481758 -4.75787e-05 0.0485186 8.52695e-07 273.241 
-0.43 -0.09 -0.758119 2.83157 0.0486524 0.0480986 -0.000148386 0.048424 8.52145e-07 272.883 
-0.41 -0.09 -0.932325 3.02021 0.048724 0.0481449 -0.000134161 0.0484614 8.52845e-07 272.87 
-0.39 -0.09 -0.899165 3.22364 0.0487449 0.0481517 -4.06705e-05 0.0484607 8.52913e-07 272.844 
-0.37 -0.09 -1.2077 3.28649 0.0487011 0.0481192 7.8782e-07 0.0484159 8.51569e-07 273.023 
-0.35 -0.03 -1.77683 3.86919 0.048607 0.0481028 -3.25842e-05 0.0483418 8.50928e-07 272.81 
-0.37 -0.07 -1.26047 3.54368 0.0486885 0.0480958 -3.96999e-05 0.0484176 8.52195e-07 272.832 
-0.41 -0.05 -0.994048 3.40472 0.0486199 0.0480235 -0.000119416 0.0483367 8.5105e-07 272.742 
-0.45 -0.03 -0.567064 3.33391 0.0485443 0.0480079 -0.000246081 0.0483108 8.50483e-07 272.778 
-0.35 -0.07 -1.51874 3.70197 0.0487265 0.0481454 -6.80482e-06 0.0484394 8.52451e-07 272.873 
-0.39 -0.05 -1.26386 3.54054 0.048631 0.0480824 -9.98018e-05 0.0483329 8.50758e-07 272.814 
-0.43 -0.03 -0.720232 3.70658 0.0485369 0.0480483 -0.000196799 0.0482986 8.50204e-07 272.799 
-0.33 -0.07 -1.72638 3.53818 0.0487854 0.0481424 2.54231e-05 0.0484609 8.52413e-07 273.006 
-0.37 -0.05 -1.54586 3.90212 0.0486329 0.0480636 -0.000104223 0.0483384 8.50207e-07 273.022 
-0.41 -0.03 -0.873465 3.68258 0.0486041 0.0480318 -0.000134145 0.048295 8.50241e-07 272.766 
-0.35 -0.05 -1.59904 3.61248 0.0485766 0.048087 -4.43166e-05 0.0483275 8.50646e-07 272.82 
-0.39 -0.03 -1.29824 3.95559 0.0486113 0.048074 -0.000117311 0.0483347 8.49674e-07 273.172 
-0.33 -0.05 -1.8282 3.89803 0.0485911 0.0480756 1.0039e-05 0.0483423 8.51841e-07 272.52 
-0.37 -0.03 -1.62478 3.94747 0.0486155 0.0479603 -3.5529e-05 0.0482554 8.49744e-07 272.702 
-0.33 -0.03 -1.99219 4.197 0.048598 0.0480081 2.03889e-05 0.0483323 8.50219e-07 272.984 
-0.49 -0.07 0.0454941 2.08753 0.04859 0.0482203 -0.000235424 0.0484084 8.51368e-07 273.045 
-0.47 -0.07 -0.14048 2.48468 0.0485972 0.0482242 -0.00023218 0.0484576 8.52282e-07 273.029 
-0.45 -0.07 -0.319874 2.78536 0.0486375 0.0481055 -0.000190143 0.0483684 8.50926e-07 272.961 
-0.49 -0.05 -0.0670667 2.14414 0.0484758 0.0481873 -0.000307545 0.0483066 8.49788e-07 272.977 
-0.43 -0.07 -0.766725 3.1502 0.0486114 0.0481512 -0.000154865 0.0484207 8.51516e-07 273.066 
-0.47 -0.05 -0.223405 2.71065 0.0485498 0.0482138 -0.000289119 0.0483872 8.51401e-07 272.915 
-0.41 -0.07 -0.940333 3.18937 0.0485637 0.0480714 -0.000113514 0.0483131 8.50521e-07 272.778 
-0.45 -0.05 -0.410951 3.01568 0.0485547 0.0480176 -0.000208041 0.0482964 8.49617e-07 272.974 
-0.49 -0.03 -0.0310887 2.27585 0.048511 0.0481331 -0.000338374 0.0483161 8.50215e-07 272.894 
-0.39 -0.07 -1.16544 3.27089 0.0485908 0.0480635 -9.98231e-05 0.0483493 8.51838e-07 272.561 
-0.43 -0.05 -0.613518 3.44582 0.0486444 0.0481336 -0.0001444 0.0484227 8.51877e-07 272.962 
-0.47 -0.03 -0.22247 2.8528 0.0485441 0.0481335 -0.000265556 0.0483338 8.50965e-07 272.753 
-0.27 -0.07 -2.49736 3.55464 0.0486462 0.0481559 0.000102472 0.0484121 8.52105e-07 272.829 
-0.31 -0.05 -2.16346 3.95494 0.0486291 0.0480652 7.66898e-05 0.0483788 8.51654e-07 272.786 
-0.27 -0.09 -2.52546 3.34509 0.0487408 0.0481774 9.85445e-05 0.0484613 8.53342e-07 272.711 
-0.31 -0.07 -2.11355 3.48716 0.0487671 0.0481168 6.64079e-05 0.0484548 8.52944e-07 272.801 
-0.29 -0.07 -2.46374 3.71158 0.048691 0.0481358 0.000135982 0.0484015 8.51793e-07 272.87 
-0.25 -0.07 -2.53128 2.95651 0.0486889 0.0481875 0.000106755 0.0484339 8.52013e-07 272.982 
-0.29 -0.05 -2.29431 3.67258 0.0486926 0.0481351 0.000116596 0.0483928 8.51794e-07 272.82 
-0.27 -0.05 -2.41802 3.59518 0.0486912 0.0481611 9.20904e-05 0.0483986 8.51395e-07 272.981 
-0.31 -0.03 -2.25788 4.13349 0.0485794 0.0480435 1.8208e-05 0.0482924 8.49884e-07 272.866 
-0.25 -0.05 -2.48266 3.13663 0.0487129 0.0481792 0.000103952 0.0484521 8.52041e-07 273.075 
-0.29 -0.03 -2.3005 3.83389 0.0485819 0.0480646 4.63744e-05 0.0483191 8.50333e-07 272.873 
-0.27 -0.03 -2.4727 3.60847 0.0486366 0.0481788 8.98196e-05 0.0484267 8.52851e-07 272.673 
-0.25 -0.03 -2.34199 3.10285 0.0486385 0.0481716 9.7056e-05 0.0484066 8.52177e-07 272.776 
-0.27 -0.01 -2.07917 3.72898 0.0485114 0.0481269 7.09236e-05 0.0483696 8.51524e-07 272.776 
-0.31 -0.25 -1.62693 1.77742 0.0488653 0.0482879 0.000109141 0.0485841 8.5476e-07 272.948 
-0.29 -0.25 -1.93581 1.73416 0.0489097 0.0483079 0.000112704 0.0485937 8.54578e-07 273.06 
-0.27 -0.25 -1.93218 1.65541 0.0489171 0.0483348 9.90402e-05 0.0486331 8.54977e-07 273.154 
-0.29 -0.11 -2.11979 2.95242 0.0487918 0.0481707 6.31106e-05 0.0484984 8.54208e-07 272.643 
-0.33 -0.09 -1.77647 3.2075 0.0487512 0.0481543 3.88662e-05 0.0484206 8.52752e-07 272.671 
-0.27 -0.11 -2.27351 3.1377 0.0487844 0.0482029 8.86473e-05 0.0484851 8.53782e-07 272.704 
-0.31 -0.09 -1.92505 3.34483 0.0486981 0.0481474 4.82648e-05 0.048426 8.51665e-07 273.049 
-0.29 -0.09 -2.13858 3.40435 0.0487198 0.0481499 5.83054e-05 0.0484364 8.52783e-07 272.749 
-0.33 -0.23 -1.38234 1.74355 0.0488473 0.0483109 8.50747e-05 0.0486202 8.55556e-07 272.897 
-0.31 -0.23 -1.48618 2.0718 0.0488498 0.0482652 3.71974e-05 0.0485745 8.54778e-07 272.889 
-0.29 -0.23 -1.52181 1.87327 0.0488406 0.0483353 8.74226e-05 0.0486116 8.55099e-07 272.994 
-0.27 -0.23 -1.82101 1.63724 0.0488293 0.04831 9.01763e-05 0.0485682 8.54329e-07 272.997 
-0.31 -0.21 -1.55254 2.16327 0.0488424 0.0482359 7.35753e-05 0.0485772 8.5542e-07 272.699 
-0.29 -0.21 -1.78706 1.95544 0.0488663 0.048314 8.0736e-05 0.048617 8.55479e-07 272.903 
-0.27 -0.21 -1.72143 1.93474 0.0488685 0.0483261 0.000142015 0.0486079 8.55306e-07 272.907 
-0.31 -0.19 -1.47138 2.33802 0.0488446 0.0482682 5.71053e-05 0.0485453 8.54492e-07 272.816 
-0.25 -0.21 -1.99317 1.75738 0.0488558 0.048213 0.000108563 0.0485682 8.54692e-07 272.88 
-0.29 -0.19 -1.66264 2.1934 0.0488277 0.048264 9.34787e-05 0.048536 8.5506e-07 272.582 
-0.27 -0.19 -1.91589 2.0019 0.0488233 0.0482793 0.000137626 0.0485538 8.53751e-07 273.1 
-0.31 -0.17 -1.51919 2.27141 0.0488041 0.0482571 4.23969e-05 0.0485418 8.54475e-07 272.802 
-0.25 -0.19 -2.07828 2.11516 0.0488427 0.0482507 0.00012821 0.0485405 8.54084e-07 272.919 
-0.29 -0.17 -1.65913 2.46157 0.0488251 0.0482447 9.74224e-05 0.0485436 8.53883e-07 273.001 
-0.27 -0.17 -2.06326 2.51052 0.0488138 0.0482667 0.000122564 0.0485739 8.54816e-07 272.873 
-0.31 -0.15 -1.68699 2.62419 0.0487689 0.0482094 7.2662e-05 0.0484983 8.54e-07 272.709 
-0.25 -0.17 -2.52455 2.26795 0.0488576 0.0482684 0.000116929 0.0485387 8.53698e-07 273.032 
-0.29 -0.15 -1.9466 2.64305 0.0487561 0.0481833 0.000113037 0.0484788 8.53598e-07 272.727 
-0.27 -0.15 -2.15538 2.79539 0.0487768 0.0483152 9.58784e-05 0.0485464 8.54511e-07 272.816 
-0.31 -0.13 -1.98377 2.90487 0.0487443 0.0481853 5.66159e-05 0.0484667 8.53213e-07 272.782 
-0.25 -0.15 -2.33233 2.52119 0.0487929 0.048275 0.000115553 0.0485054 8.53938e-07 272.768 
-0.29 -0.13 -2.25477 2.86921 0.0487783 0.0481645 5.78491e-05 0.048489 8.5424e-07 272.58 
-0.27 -0.13 -2.53636 2.93201 0.0487693 0.0482634 7.85468e-05 0.0485174 8.5404e-07 272.803 
-0.31 -0.11 -1.94437 3.33282 0.0488259 0.0481956 5.09756e-05 0.0485151 8.52948e-07 273.14 
-0.25 -0.13 -2.56023 2.67082 0.0487945 0.0482347 0.000131568 0.0485021 8.53681e-07 272.832 
-0.25 -0.25 -1.87486 1.42778 0.0488957 0.048351 0.00012586 0.048643 8.55584e-07 273.016 
-0.25 -0.23 -2.06444 1.69908 0.0488156 0.048266 0.000124735 0.0485496 8.54505e-07 272.836 
-0.25 -0.11 -2.50244 2.84073 0.0487721 0.0482136 7.14826e-05 0.0484681 8.52567e-07 272.997 
-0.25 -0.09 -2.69452 2.94522 0.0487191 0.0482328 0.000141994 0.0484662 8.52361e-07 273.052 
-0.25 -0.01 -2.45462 3.32414 0.0485108 0.0481292 0.000124828 0.0483159 8.51275e-07 272.553 
-0.23 -0.49 -0.857172 0.057687 0.0486854 0.0485552 0.000132011 0.0485997 8.547e-07 273.055 
-0.21 -0.49 -0.94128 0.0136444 0.0486972 0.0485064 0.000130987 0.0485952 8.53551e-07 273.397 
-0.19 -0.49 -1.01205 0.0050451 0.0487421 0.0485652 0.000199018 0.0486447 8.54816e-07 273.27 
-0.23 -0.47 -0.863859 0.0835882 0.0487539 0.0485422 0.00010329 0.0486647 8.56291e-07 272.912 
-0.17 -0.49 -1.06277 0.0637549 0.0487354 0.0486312 0.000131763 0.0486858 8.56042e-07 273.11 
-0.21 -0.47 -1.07721 0.210617 0.0487563 0.0484927 0.000133919 0.0486173 8.55274e-07 272.971 
-0.15 -0.49 -0.974705 -0.0293805 0.0487149 0.0486238 0.000192896 0.0486508 8.56083e-07 272.901 