ITEM: TIMESTEP
1078500
ITEM: NUMBER OF CELLS
2500
ITEM: BOX BOUNDS ss ss pp
-0.5 0.5
-0.5 0.5
-0.5 0.5
ITEM: CELLS xc yc f_U[*] f_V[*] f_Tau[1] f_Tau[2] f_Tau[3] f_Press[*] f_Mrho[*] f_Ttra[*] 
-0.49 -0.49 -0.0589945 -0.0141362 0.0487139 0.048625 -9.35776e-06 0.0487197 8.56406e-07 273.184 
-0.47 -0.49 -0.0616607 0.0439648 0.0486868 0.048627 8.64254e-06 0.0486741 8.55822e-07 273.114 
-0.45 -0.49 -0.0955716 -0.0136754 0.0486711 0.0485569 4.13139e-05 0.04862 8.55827e-07 272.81 
-0.49 -0.47 0.0117592 0.00446338 0.0486956 0.048611 -1.9596e-05 0.0486491 8.55305e-07 273.139 
-0.43 -0.49 -0.181632 0.0714092 0.0486445 0.0485315 -3.16586e-06 0.0485787 8.55063e-07 272.821 
-0.47 -0.47 0.00717757 0.0608049 0.0487189 0.0486014 -1.00887e-06 0.0486845 8.55605e-07 273.242 
-0.41 -0.49 -0.249179 -0.0139296 0.0486734 0.0485271 3.16271e-05 0.0486029 8.55272e-07 272.891 
-0.45 -0.47 -0.0966763 0.160834 0.0487329 0.0485585 4.71472e-05 0.0486521 8.55735e-07 273.019 
-0.49 -0.45 -0.0282788 0.0350965 0.0487283 0.0486094 -3.91568e-05 0.0486686 8.55478e-07 273.194 
-0.39 -0.49 -0.252698 0.0621182 0.0486901 0.0484467 2.92019e-05 0.0485703 8.54843e-07 272.844 
-0.43 -0.47 -0.121622 0.0236412 0.0487233 0.0485571 1.32221e-05 0.0486365 8.55224e-07 273.095 
-0.47 -0.45 -0.158137 0.18859 0.0487233 0.0485433 7.4759e-06 0.0486477 8.55613e-07 273.033 
-0.37 -0.49 -0.41441 0.0729089 0.0487046 0.0485093 4.05545e-05 0.0486101 8.55462e-07 272.87 
-0.41 -0.47 -0.311625 0.24736 0.0486878 0.0484873 4.46388e-05 0.0485899 8.5497e-07 272.913 
-0.45 -0.45 -0.292027 0.120077 0.048763 0.0485673 1.25351e-05 0.0486855 8.5625e-07 273.042 
-0.49 -0.43 -0.0736415 0.156115 0.0487067 0.0485751 -4.29656e-05 0.0486624 8.56039e-07 272.979 
-0.35 -0.49 -0.441678 -0.02817 0.0486867 0.0484975 6.51252e-05 0.0485811 8.54766e-07 272.929 
-0.39 -0.47 -0.554474 0.150726 0.0486763 0.0484441 3.93659e-05 0.0485781 8.54712e-07 272.93 
-0.43 -0.45 -0.335939 0.23523 0.0487705 0.048547 5.45425e-05 0.0486569 8.54978e-07 273.288 
-0.47 -0.43 -0.142783 0.246505 0.0487211 0.0485266 -1.38596e-05 0.0486529 8.55818e-07 272.997 
-0.37 -0.47 -0.539498 0.145772 0.0486707 0.048483 3.97394e-05 0.0485725 8.54574e-07 272.942 
-0.41 -0.45 -0.326627 0.314349 0.0487263 0.0484645 3.65646e-05 0.0485987 8.54638e-07 273.069 
-0.45 -0.43 -0.248174 0.340759 0.0487249 0.0485479 -9.74919e-06 0.0486442 8.55542e-07 273.036 
-0.49 -0.41 0.00165359 0.358598 0.0487527 0.0485395 -9.37117e-06 0.0486326 8.55627e-07 272.944 
-0.35 -0.47 -0.704218 0.0197967 0.0486888 0.0484764 8.06855e-05 0.0485966 8.54983e-07 272.947 
-0.39 -0.45 -0.432681 0.233589 0.0487533 0.0484534 5.49534e-05 0.0485876 8.54645e-07 273.005 
-0.43 -0.43 -0.368906 0.285564 0.0487413 0.0485025 2.38865e-05 0.0486389 8.55618e-07 272.982 
-0.47 -0.41 -0.312603 0.345262 0.0487467 0.0485469 -2.97012e-05 0.0486633 8.56083e-07 272.971 
-0.37 -0.45 -0.61567 0.338923 0.0487244 0.0484924 4.94688e-05 0.0486048 8.55185e-07 272.929 
-0.41 -0.43 -0.541463 0.341556 0.0487968 0.0484961 3.98249e-05 0.048653 8.55589e-07 273.071 
-0.45 -0.41 -0.333831 0.350148 0.0487586 0.0485076 -7.66651e-06 0.0486501 8.55764e-07 272.998 
-0.49 -0.39 -0.0361147 0.35683 0.0487058 0.0485269 -1.86675e-05 0.048618 8.55493e-07 272.905 
-0.35 -0.45 -0.697278 0.103387 0.0487154 0.0484494 5.80125e-05 0.0485645 8.5494e-07 272.781 
-0.39 -0.43 -0.556012 0.36719 0.0487667 0.0484159 3.38557e-05 0.0485718 8.54332e-07 273.016 
-0.43 -0.41 -0.47726 0.397757 0.0487445 0.0485406 1.0157e-05 0.0486575 8.5567e-07 273.07 
-0.47 -0.39 0.0650453 0.481115 0.0487385 0.0485567 -3.55406e-05 0.048641 8.56286e-07 272.781 
-0.37 -0.43 -0.617941 0.377666 0.0488009 0.0484597 6.44769e-05 0.0486116 8.55262e-07 272.942 
-0.41 -0.41 -0.50377 0.368668 0.0487123 0.0484419 2.78569e-05 0.0485691 8.54657e-07 272.897 
-0.45 -0.39 -0.0575618 0.551439 0.0487454 0.0484464 -1.53328e-05 0.048627 8.55957e-07 272.807 
-0.35 -0.43 -0.634422 0.128633 0.0488107 0.048484 3.67724e-05 0.0486227 8.56097e-07 272.738 
-0.39 -0.41 -0.390091 0.313116 0.0487497 0.0484433 1.59645e-05 0.0485879 8.55188e-07 272.833 
-0.43 -0.39 -0.200865 0.477672 0.0487837 0.0485355 3.27439e-05 0.0486683 8.56071e-07 273.003 
-0.37 -0.41 -0.394709 0.496157 0.0487595 0.0484269 4.27121e-05 0.0485688 8.54773e-07 272.858 
-0.41 -0.39 -0.309121 0.493043 0.04876 0.0484593 4.11915e-06 0.0486116 8.55175e-07 272.97 
-0.35 -0.41 -0.758878 0.405217 0.0487632 0.0484955 3.55564e-05 0.0485871 8.5545e-07 272.745 
-0.39 -0.39 -0.58216 0.3172 0.0487741 0.0484301 2.93475e-05 0.0486106 8.55753e-07 272.781 
-0.37 -0.39 -0.710371 0.568509 0.048776 0.0484326 2.6465e-05 0.0485997 8.5473e-07 273.046 
-0.35 -0.39 -0.681468 0.644751 0.0487795 0.0484586 7.24333e-05 0.0486062 8.55798e-07 272.741 
-0.37 -0.37 -0.77495 0.50829 0.0488087 0.0484141 1.86477e-05 0.048599 8.54583e-07 273.089 
-0.33 -0.49 -0.499462 0.0301483 0.0486577 0.0484556 7.73051e-05 0.048576 8.54499e-07 272.986 
-0.33 -0.47 -0.664173 0.0370988 0.0486795 0.0484839 7.92073e-05 0.0485863 8.54811e-07 272.944 
-0.33 -0.43 -0.743827 0.0628942 0.0487765 0.0484853 4.92923e-05 0.0486146 8.55669e-07 272.83 
-0.49 -0.37 -0.0501484 0.335708 0.0487357 0.0485388 -5.68791e-05 0.0486302 8.5561e-07 272.935 
-0.47 -0.37 -0.105949 0.557966 0.0487636 0.048548 -5.50692e-05 0.0486602 8.55727e-07 273.067 
-0.45 -0.37 -0.280853 0.611712 0.0487465 0.0484424 -1.95665e-05 0.0486083 8.54836e-07 273.06 
-0.49 -0.35 0.0238251 0.522661 0.0487972 0.048574 -6.00678e-05 0.0486678 8.56545e-07 272.849 
-0.43 -0.37 -0.436742 0.691048 0.0487581 0.0485059 -4.62775e-06 0.0486455 8.55191e-07 273.155 
-0.47 -0.35 -0.199329 0.645438 0.0487772 0.0485056 -1.42814e-05 0.048649 8.55562e-07 273.057 
-0.45 -0.35 -0.277732 0.790358 0.0487409 0.0484258 -4.33922e-06 0.0486197 8.55146e-07 273.025 
-0.49 -0.33 -0.134139 0.540193 0.0487635 0.0485087 -5.71076e-05 0.048643 8.5644e-07 272.743 
-0.39 -0.37 -0.67617 0.562013 0.0487702 0.0483973 9.11374e-06 0.0485789 8.55072e-07 272.819 
-0.43 -0.35 -0.23284 0.607885 0.0487706 0.0484757 -4.23568e-05 0.0486441 8.55118e-07 273.171 
-0.47 -0.33 -0.0859049 0.762465 0.0487827 0.0484819 -1.49983e-05 0.0486184 8.55512e-07 272.901 
-0.41 -0.35 -0.423047 0.782421 0.0487695 0.0484488 3.28419e-05 0.0486094 8.55452e-07 272.869 
-0.45 -0.33 -0.172983 0.849833 0.0488297 0.0484434 -3.1471e-05 0.0486305 8.55427e-07 272.996 
-0.49 -0.31 -0.0644313 0.7175 0.048726 0.0484778 -6.95461e-05 0.0485959 8.55308e-07 272.84 
-0.39 -0.35 -0.596726 0.744083 0.0487781 0.0484278 -7.49318e-06 0.048586 8.54655e-07 272.993 
-0.43 -0.33 -0.397102 0.782383 0.0488343 0.0484564 -1.74179e-05 0.0486293 8.55056e-07 273.108 
-0.47 -0.31 -0.191152 0.837345 0.0487557 0.0484653 -7.06746e-05 0.0485908 8.5496e-07 272.922 
-0.37 -0.35 -0.869492 0.782961 0.0487261 0.0483601 3.13899e-05 0.048543 8.54252e-07 272.88 
-0.41 -0.33 -0.509525 0.878962 0.0488187 0.048431 -6.49851e-06 0.0486209 8.55138e-07 273.034 
-0.45 -0.31 -0.206911 0.884095 0.0487892 0.0484563 -6.95793e-05 0.0486073 8.55031e-07 272.992 
-0.49 -0.29 -0.0498668 0.86892 0.0487528 0.0484682 -9.16049e-05 0.0485989 8.55323e-07 272.851 
-0.35 -0.35 -1.07506 0.928484 0.0487213 0.0483826 5.13505e-05 0.0485643 8.54269e-07 272.994 
-0.39 -0.33 -0.643903 0.989968 0.0488063 0.0484129 4.73846e-05 0.0485881 8.55318e-07 272.793 
-0.43 -0.31 -0.379901 0.984453 0.0487886 0.0484365 -4.05924e-05 0.0486186 8.55448e-07 272.922 
-0.47 -0.29 -0.198316 0.87577 0.0487726 0.0484801 -7.97862e-05 0.0486304 8.55816e-07 272.871 
-0.37 -0.33 -0.787277 1.0521 0.0487892 0.0483513 4.83174e-05 0.048569 8.54548e-07 272.931 
-0.41 -0.31 -0.664481 1.01548 0.048827 0.0483825 1.78345e-05 0.0486192 8.5534e-07 272.96 
-0.45 -0.29 -0.3001 1.00401 0.0487582 0.0484417 -6.93162e-05 0.0486044 8.5527e-07 272.899 
-0.49 -0.27 -0.0856207 1.02327 0.048831 0.0484467 -9.65059e-05 0.048658 8.56537e-07 272.796 
-0.35 -0.33 -0.926048 0.985686 0.0488234 0.0484196 2.90929e-06 0.0486433 8.55468e-07 273.055 
-0.39 -0.31 -0.666962 1.06784 0.0488644 0.0484079 2.11817e-05 0.0486419 8.55399e-07 273.069 
-0.43 -0.29 -0.380378 1.17517 0.0487589 0.0483707 -5.46682e-05 0.0485568 8.54762e-07 272.794 
-0.47 -0.27 -0.16617 0.950782 0.0488381 0.0484581 -8.4711e-05 0.0486772 8.56386e-07 272.952 
-0.37 -0.31 -0.765151 1.08635 0.0488933 0.0483906 9.2487e-06 0.0486377 8.55309e-07 273.074 
-0.41 -0.29 -0.432995 1.1281 0.0488023 0.0483507 -3.47705e-05 0.0485873 8.54701e-07 272.985 
-0.45 -0.27 -0.226676 1.08147 0.0488524 0.0484083 -7.15424e-05 0.0486201 8.56022e-07 272.748 
-0.35 -0.31 -0.910035 1.27485 0.0488878 0.0484088 4.43022e-05 0.0486507 8.55508e-07 273.083 
-0.39 -0.29 -0.650804 1.24934 0.0488262 0.0483913 7.57134e-06 0.0485981 8.5464e-07 273.065 
-0.43 -0.27 -0.420266 1.32352 0.0488613 0.048365 -3.81966e-05 0.0486309 8.55714e-07 272.907 
-0.37 -0.29 -0.815454 1.10581 0.0488291 0.048405 1.29407e-05 0.0486378 8.54542e-07 273.32 
-0.41 -0.27 -0.586459 1.2895 0.0488261 0.0483317 -4.1477e-05 0.0485529 8.55167e-07 272.643 
-0.35 -0.29 -1.05259 1.5139 0.0488238 0.0483591 3.97633e-05 0.0485865 8.5486e-07 272.93 
-0.39 -0.27 -0.853579 1.44146 0.0488374 0.0483522 -2.36558e-05 0.048619 8.55183e-07 273.009 
-0.33 -0.29 -1.14927 1.4113 0.0488753 0.0484083 4.23659e-05 0.0486281 8.55296e-07 273.024 
-0.37 -0.27 -1.05626 1.34188 0.048856 0.0483815 2.0088e-05 0.0486307 8.55199e-07 273.07 
-0.35 -0.27 -1.17172 1.56536 0.0488465 0.0483714 1.42392e-05 0.0486081 8.55627e-07 272.806 
-0.33 -0.27 -1.29584 1.56742 0.0488341 0.048351 6.14938e-05 0.048563 8.54624e-07 272.873 
-0.41 -0.37 -0.487651 0.65307 0.0487951 0.0484783 6.48138e-06 0.048643 8.55969e-07 272.893 
-0.35 -0.37 -0.882059 0.841718 0.0488088 0.048415 5.60584e-05 0.0485987 8.55427e-07 272.817 
-0.33 -0.37 -0.977147 0.564352 0.0487896 0.0484469 5.49833e-05 0.048618 8.55019e-07 273.056 
-0.33 -0.35 -1.29649 0.722458 0.048776 0.0484496 6.43459e-05 0.0486319 8.55087e-07 273.112 
-0.33 -0.31 -1.21859 1.09857 0.0488368 0.0483828 5.84789e-05 0.0486121 8.55024e-07 273.021 
-0.35 -0.25 -1.24066 1.72998 0.0488346 0.0483424 2.98297e-05 0.048604 8.55253e-07 272.903 
-0.31 -0.49 -0.48941 0.0478659 0.0486924 0.0485704 9.20619e-05 0.048642 8.54905e-07 273.227 
-0.29 -0.49 -0.587816 0.0394485 0.0486956 0.0485131 0.000106166 0.0486185 8.5467e-07 273.17 
-0.27 -0.49 -0.684478 -0.06772 0.0486859 0.0484734 0.000123812 0.048584 8.55006e-07 272.87 
-0.31 -0.47 -0.669535 -0.00222125 0.0486859 0.0485397 8.37126e-05 0.0486084 8.54245e-07 273.249 
-0.29 -0.47 -0.648596 0.104499 0.048692 0.0484542 0.000112691 0.0485867 8.54174e-07 273.15 
-0.27 -0.47 -0.658657 0.0572988 0.0487031 0.048493 0.000112887 0.0485733 8.54242e-07 273.053 
-0.31 -0.45 -0.752194 0.132318 0.0487662 0.0484913 6.58618e-05 0.0486246 8.55077e-07 273.075 
-0.29 -0.45 -0.753972 0.136676 0.0487447 0.0484728 0.0001186 0.0486119 8.54647e-07 273.141 
-0.27 -0.45 -1.05045 0.266574 0.048748 0.0484871 0.000123426 0.048599 8.54933e-07 272.977 
-0.31 -0.43 -1.05046 0.215213 0.0487494 0.0484289 8.73257e-05 0.0485932 8.55328e-07 272.818 
-0.29 -0.43 -1.29372 0.352987 0.0487636 0.0484572 0.000116637 0.0486131 8.55233e-07 272.96 
-0.27 -0.43 -1.28875 0.380801 0.0487739 0.0484946 0.000112911 0.0486224 8.54702e-07 273.182 
-0.31 -0.41 -1.17822 0.418166 0.0487648 0.0484088 0.000113252 0.0485915 8.54841e-07 272.964 
-0.25 -0.43 -1.38476 0.315891 0.0487484 0.0484874 0.000114782 0.0486118 8.54312e-07 273.247 
-0.29 -0.41 -1.3045 0.413861 0.0487782 0.0484626 8.68908e-05 0.048617 8.55084e-07 273.03 
-0.27 -0.41 -1.33909 0.310806 0.0487843 0.0484984 0.0001238 0.0486379 8.55736e-07 272.939 
-0.31 -0.39 -1.00641 0.63846 0.0488101 0.0484214 7.67067e-05 0.0486203 8.54962e-07 273.087 
-0.25 -0.41 -1.3195 0.360645 0.0487794 0.0484704 0.000114564 0.0486268 8.55163e-07 273.06 
-0.29 -0.39 -1.08404 0.367947 0.0488376 0.0484144 8.83055e-05 0.0486294 8.55507e-07 272.964 
-0.27 -0.39 -1.29023 0.589307 0.0488497 0.0484765 0.000123134 0.0487017 8.56462e-07 273.065 
-0.31 -0.37 -1.11406 0.731317 0.0487736 0.0484128 5.89645e-05 0.0486038 8.54479e-07 273.149 
-0.25 -0.39 -1.52818 0.539946 0.0488277 0.0485091 0.000140896 0.0486879 8.56208e-07 273.069 
-0.29 -0.37 -1.25528 0.601655 0.0487696 0.0483842 6.66766e-05 0.0485796 8.55261e-07 272.763 
-0.27 -0.37 -1.39884 0.65834 0.0488123 0.0484109 9.4525e-05 0.0486295 8.55423e-07 272.991 
-0.31 -0.35 -1.33045 0.734303 0.048833 0.0484285 4.33696e-05 0.0486453 8.55375e-07 273.096 
-0.29 -0.35 -1.39331 0.814512 0.0488372 0.0483667 6.4472e-05 0.0486204 8.55627e-07 272.876 
-0.27 -0.35 -1.55799 0.91981 0.0488415 0.048409 7.79259e-05 0.0486225 8.55469e-07 272.937 
-0.31 -0.33 -1.22521 0.869903 0.0488153 0.0484057 4.14531e-05 0.0485957 8.54825e-07 272.993 
-0.29 -0.33 -1.57667 1.0018 0.0488014 0.0483544 6.10237e-05 0.0485882 8.55349e-07 272.784 
-0.27 -0.33 -1.66164 0.980738 0.0487832 0.0483699 0.000108064 0.0485745 8.54924e-07 272.842 
-0.31 -0.31 -1.4062 0.999373 0.0488148 0.0483903 6.44861e-05 0.0486052 8.5468e-07 273.092 
-0.29 -0.31 -1.49862 1.25683 0.0488021 0.0483473 7.82078e-05 0.0485908 8.54947e-07 272.926 
-0.27 -0.31 -1.76357 1.03473 0.0487978 0.0483373 7.74936e-05 0.0485552 8.54224e-07 272.957 
-0.31 -0.29 -1.47495 1.31276 0.0488298 0.0483464 6.73248e-05 0.0485795 8.54243e-07 273.087 
-0.25 -0.31 -1.81687 1.11129 0.048811 0.0484567 0.000110604 0.0486321 8.54865e-07 273.185 
-0.29 -0.29 -1.79096 1.28353 0.0488375 0.048358 7.53697e-05 0.0485966 8.54152e-07 273.213 
-0.27 -0.29 -1.75853 1.20175 0.0488586 0.0483444 9.93707e-05 0.0485899 8.54687e-07 273.004 
-0.31 -0.27 -1.43385 1.51489 0.0488499 0.0483557 6.82908e-05 0.0486201 8.5553e-07 272.905 
-0.25 -0.29 -1.94507 1.17056 0.0488622 0.0484428 8.51935e-05 0.0486343 8.55069e-07 273.131 
-0.29 -0.27 -1.50231 1.5044 0.0488168 0.0483102 0.000104447 0.048565 8.54279e-07 272.994 
-0.27 -0.27 -1.81682 1.44674 0.0488033 0.0483578 8.57747e-05 0.0485774 8.54343e-07 273.044 
-0.25 -0.27 -2.04323 1.28497 0.0488083 0.048387 0.00011208 0.0485937 8.54829e-07 272.98 
-0.33 -0.45 -0.722343 -0.0815314 0.0487632 0.048503 5.26675e-05 0.0486064 8.55349e-07 272.886 
-0.33 -0.41 -1.12251 0.367372 0.0487826 0.0484554 8.40756e-05 0.0485937 8.55451e-07 272.782 
-0.33 -0.39 -0.814808 0.492223 0.0487695 0.0484255 6.93287e-05 0.048588 8.54973e-07 272.902 
-0.33 -0.33 -1.0071 0.88473 0.0488201 0.0484241 8.84851e-06 0.0486111 8.54579e-07 273.158 
-0.25 -0.49 -0.678682 0.0601729 0.0486502 0.048485 0.000126811 0.0485978 8.55436e-07 272.809 
-0.25 -0.47 -0.825089 0.114728 0.0487374 0.0484993 0.000101275 0.0486156 8.55283e-07 272.958 
-0.25 -0.45 -1.13874 0.134734 0.0487518 0.0484958 8.51991e-05 0.0486159 8.55274e-07 272.963 
-0.25 -0.37 -1.58194 0.673424 0.0488506 0.048524 0.000135368 0.04869 8.56037e-07 273.135 
-0.25 -0.35 -1.8047 0.801387 0.048821 0.048449 0.000109578 0.0486389 8.56024e-07 272.853 
-0.25 -0.33 -1.67169 1.02656 0.0487848 0.0484594 0.000101216 0.0486365 8.55603e-07 272.973 
-0.49 -0.25 -0.0228517 1.15513 0.0487666 0.0484495 -0.000120847 0.0486569 8.55745e-07 273.043 
-0.47 -0.25 -0.251977 1.11397 0.0488169 0.0484136 -0.000102339 0.0486194 8.55568e-07 272.888 
-0.45 -0.25 -0.373305 1.10466 0.0487868 0.0483913 -5.76069e-05 0.0486155 8.55681e-07 272.831 
-0.49 -0.23 -0.0204437 1.20413 0.0487267 0.0484642 -0.000145636 0.0485906 8.54915e-07 272.935 
-0.47 -0.23 -0.0594076 1.28033 0.048738 0.0483795 -0.000121223 0.0485539 8.54562e-07 272.842 
-0.45 -0.23 -0.482485 1.36528 0.0487788 0.0483504 -9.99093e-05 0.0485993 8.54757e-07 273.035 
-0.49 -0.21 -0.043824 1.24983 0.0487256 0.0484587 -0.000166705 0.0485859 8.54778e-07 272.953 
-0.43 -0.23 -0.563098 1.44233 0.0488209 0.0483748 -7.14229e-05 0.0486091 8.54688e-07 273.112 
-0.47 -0.21 -0.257655 1.52049 0.0487558 0.0483426 -0.00015454 0.0485702 8.54234e-07 273.038 
-0.41 -0.23 -0.762906 1.77699 0.0488133 0.0483073 -4.76406e-05 0.0485635 8.54006e-07 273.073 
-0.45 -0.21 -0.299528 1.54042 0.0487789 0.0483388 -0.000103686 0.048592 8.54355e-07 273.122 
-0.49 -0.19 -0.030323 1.34791 0.0488139 0.0484247 -0.000160175 0.0486181 8.55378e-07 272.942 
-0.39 -0.23 -0.763615 1.81397 0.0488142 0.0482789 -1.46264e-05 0.0485664 8.53914e-07 273.119 
-0.43 -0.21 -0.653887 1.64683 0.0487934 0.0483478 -8.45344e-05 0.0485934 8.54676e-07 273.027 
-0.47 -0.19 -0.152592 1.70453 0.0487802 0.0483327 -0.000131571 0.0485811 8.5449e-07 273.018 
-0.41 -0.21 -0.749147 1.86829 0.0488034 0.048254 -4.1889e-05 0.0485628 8.5373e-07 273.158 
-0.45 -0.19 -0.427631 1.79127 0.0487699 0.0483106 -0.000114996 0.0485588 8.53918e-07 273.075 
-0.49 -0.17 -0.0136862 1.33907 0.0487288 0.0484068 -0.000152162 0.0485687 8.55503e-07 272.625 
-0.39 -0.21 -0.95897 2.06615 0.0488122 0.0482911 -3.70731e-05 0.0485739 8.54251e-07 273.054 
-0.43 -0.19 -0.621942 1.87846 0.0487806 0.0483067 -0.000103264 0.0485725 8.54524e-07 272.958 
-0.47 -0.17 -0.159762 2.03037 0.0487478 0.0483074 -0.000125595 0.0485266 8.5377e-07 272.941 
-0.41 -0.19 -0.806064 1.98988 0.0487971 0.0482468 -6.03049e-05 0.0485316 8.53661e-07 273.004 
-0.45 -0.17 -0.231246 1.94075 0.0487754 0.0482984 -0.000140086 0.0485463 8.539e-07 273.011 
-0.49 -0.15 -0.0729646 1.45075 0.048671 0.0483419 -0.000184123 0.0485113 8.53908e-07 272.811 
-0.39 -0.19 -0.908277 2.144 0.0488092 0.0482706 -4.78614e-05 0.0485477 8.54103e-07 272.954 
-0.43 -0.17 -0.437965 2.07006 0.0487597 0.048258 -0.000101353 0.0485405 8.53916e-07 272.973 
-0.47 -0.15 0.104502 1.88991 0.04871 0.048313 -0.000159582 0.0485042 8.53591e-07 272.873 
-0.41 -0.17 -0.610167 2.10881 0.0487588 0.0482222 -6.37893e-05 0.048497 8.52326e-07 273.237 
-0.45 -0.15 -0.0230337 2.18215 0.0487161 0.0482642 -0.000134676 0.048511 8.53453e-07 272.955 
-0.39 -0.17 -0.774495 2.33791 0.0487662 0.0482578 -6.45628e-05 0.0485113 8.53311e-07 273.002 
-0.43 -0.15 -0.284358 2.25651 0.0487388 0.0481998 -8.67346e-05 0.0484883 8.53333e-07 272.866 
-0.41 -0.15 -0.567952 2.35608 0.0487485 0.0482193 -7.61431e-05 0.0484991 8.52931e-07 273.055 
-0.39 -0.15 -0.89824 2.67305 0.0487505 0.0482475 -6.35002e-05 0.0485018 8.54031e-07 272.718 
-0.43 -0.25 -0.363763 1.51652 0.0487938 0.0483822 -4.32617e-05 0.0485879 8.55118e-07 272.855 
-0.41 -0.25 -0.446681 1.55527 0.0488171 0.0483133 -4.75217e-05 0.0485841 8.54831e-07 272.925 
-0.39 -0.25 -0.824361 1.64363 0.0488371 0.0483315 -1.9404e-05 0.0485853 8.54948e-07 272.895 
-0.33 -0.25 -1.46132 1.75709 0.0488181 0.0483283 4.72145e-05 0.0485876 8.54898e-07 272.924 
-0.37 -0.25 -1.02021 1.51175 0.0488198 0.0483583 1.41992e-05 0.0486044 8.55356e-07 272.872 
-0.37 -0.23 -1.10013 1.9035 0.048849 0.0483645 -7.48442e-07 0.0486465 8.55409e-07 273.091 
-0.35 -0.23 -1.31909 1.99595 0.0488544 0.048297 1.85076e-05 0.0485962 8.54737e-07 273.024 
-0.37 -0.21 -1.09377 2.12835 0.0488127 0.048292 -1.79643e-05 0.0485851 8.5454e-07 273.024 
-0.35 -0.21 -1.25513 2.13046 0.0488128 0.0482722 3.65695e-05 0.0485511 8.54111e-07 272.97 
-0.33 -0.21 -1.43005 2.03388 0.0488366 0.0482994 4.9288e-05 0.04858 8.55013e-07 272.844 
-0.37 -0.19 -1.0141 2.28742 0.0488182 0.0482678 -1.17985e-05 0.0485558 8.54304e-07 272.935 
-0.35 -0.19 -1.14253 2.2124 0.0488267 0.0482433 1.87799e-05 0.0485333 8.54136e-07 272.862 
-0.33 -0.19 -1.32609 2.24373 0.0488359 0.0482753 2.40056e-05 0.0485502 8.54222e-07 272.929 
-0.37 -0.17 -0.9794 2.44592 0.0487947 0.0482234 -3.13615e-05 0.0485199 8.53552e-07 272.974 
-0.35 -0.17 -1.28063 2.46265 0.0487837 0.0482136 2.42469e-05 0.0485222 8.53704e-07 272.938 
-0.33 -0.17 -1.41492 2.39952 0.0488082 0.0482496 2.00117e-05 0.0485142 8.54064e-07 272.778 
-0.37 -0.15 -1.19779 2.62517 0.0487506 0.0481537 -2.56171e-05 0.0484288 8.52547e-07 272.782 
-0.35 -0.15 -1.29449 2.6019 0.0487865 0.0482104 -2.69758e-05 0.0484978 8.54135e-07 272.663 
-0.33 -0.15 -1.47874 2.56945 0.0488082 0.0482365 7.52871e-06 0.0485185 8.54374e-07 272.703 
-0.37 -0.13 -1.01769 2.72282 0.0487857 0.0481568 -3.87053e-05 0.0484776 8.53121e-07 272.873 
-0.35 -0.13 -1.24346 2.95845 0.048741 0.0481842 -1.622e-05 0.0484674 8.53657e-07 272.645 
-0.33 -0.13 -1.54186 2.69692 0.0487314 0.0481995 3.80138e-05 0.0484584 8.5332e-07 272.702 
-0.37 -0.11 -1.10959 3.01089 0.0487481 0.0481189 -3.07429e-05 0.0484613 8.52739e-07 272.904 
-0.35 -0.11 -1.44997 3.02429 0.0487406 0.0481509 2.40316e-06 0.0484462 8.53181e-07 272.677 
-0.33 -0.11 -1.60822 2.99908 0.0487591 0.048161 1.02521e-05 0.0484533 8.5298e-07 272.782 
-0.35 -0.09 -1.4352 3.36043 0.0487396 0.048144 -1.67438e-06 0.0484496 8.52415e-07 272.941 
-0.49 -0.13 -0.079367 1.5312 0.0486647 0.0483173 -0.000210399 0.0484848 8.53686e-07 272.733 
-0.47 -0.13 -0.224038 1.9263 0.048704 0.0482712 -0.000199 0.0484827 8.53275e-07 272.853 
-0.45 -0.13 -0.28842 2.32202 0.0487385 0.0482332 -0.000143316 0.048477 8.5325e-07 272.829 
-0.49 -0.11 -0.0311607 1.64743 0.0487418 0.0483436 -0.000236162 0.0485289 8.53241e-07 273.124 
-0.43 -0.13 -0.355468 2.50859 0.0487405 0.0481743 -0.000132039 0.0484662 8.52683e-07 272.949 
-0.47 -0.11 -0.266659 2.14688 0.0487188 0.0482388 -0.000194513 0.0484877 8.53005e-07 272.967 
-0.41 -0.13 -0.753073 2.72165 0.0487773 0.0481961 -9.28997e-05 0.0484757 8.5302e-07 272.895 
-0.45 -0.11 -0.49603 2.38217 0.0487174 0.0481987 -0.000169806 0.0484794 8.52258e-07 273.16 
-0.49 -0.09 -0.132032 1.87858 0.0486094 0.0482563 -0.00023537 0.0484216 8.51975e-07 272.924 
-0.39 -0.13 -0.934554 2.83265 0.0487811 0.048217 -5.51019e-05 0.0485014 8.53306e-07 272.948 
-0.43 -0.11 -0.637791 2.7451 0.0487426 0.0481563 -0.00013473 0.0484735 8.52304e-07 273.112 
-0.47 -0.09 -0.316454 2.38834 0.0486648 0.0482351 -0.000207777 0.0484628 8.52399e-07 273.021 
-0.41 -0.11 -0.669855 2.93516 0.0487416 0.0481573 -0.000113448 0.0484492 8.52442e-07 272.93 
-0.45 -0.09 -0.560468 2.55701 0.0486732 0.0481767 -0.0001906 0.0484152 8.52296e-07 272.786 
-0.39 -0.11 -0.991295 2.99398 0.0487485 0.0481731 -6.66805e-05 0.0484815 8.52605e-07 273.06 
-0.43 -0.09 -0.721691 2.85816 0.0486938 0.0481085 -0.000153281 0.0484345 8.51923e-07 273.014 
-0.41 -0.09 -0.859744 3.02998 0.0487219 0.0481047 -0.000122627 0.0484238 8.52385e-07 272.806 
-0.39 -0.09 -0.878366 3.19483 0.0487296 0.048141 -5.19421e-05 0.048432 8.52264e-07 272.891 
-0.37 -0.09 -1.22402 3.26594 0.0487343 0.0481 -3.56946e-05 0.0484315 8.52369e-07 272.854 
-0.35 -0.03 -1.67402 3.85982 0.0485958 0.0480298 -2.5614e-05 0.0483214 8.50793e-07 272.738 
-0.37 -0.07 -1.32892 3.51878 0.048709 0.0480674 -4.077e-05 0.048417 8.52334e-07 272.784 
-0.41 -0.05 -1.0005 3.46748 0.048619 0.0480238 -0.000131974 0.0483258 8.50739e-07 272.781 
-0.45 -0.03 -0.536308 3.3853 0.0485636 0.0480237 -0.000252458 0.0483093 8.50551e-07 272.747 
-0.35 -0.07 -1.57194 3.64448 0.0487057 0.0480873 1.48157e-05 0.0484017 8.51878e-07 272.844 
-0.39 -0.05 -1.28987 3.59997 0.0486197 0.0480577 -0.000103792 0.0483378 8.50816e-07 272.823 
-0.43 -0.03 -0.743265 3.63475 0.0485566 0.0480022 -0.000201221 0.0482987 8.5033e-07 272.758 
-0.33 -0.07 -1.69787 3.45444 0.0487229 0.0480946 2.10823e-05 0.0484183 8.52186e-07 272.838 
-0.37 -0.05 -1.46511 3.90272 0.0486173 0.0480131 -7.03811e-05 0.0483096 8.50191e-07 272.865 
-0.41 -0.03 -0.966211 3.70036 0.0485953 0.0480179 -0.000131529 0.0482928 8.50136e-07 272.787 
-0.35 -0.05 -1.62442 3.58992 0.0486254 0.0480485 -2.44426e-05 0.0483441 8.50433e-07 272.982 
-0.39 -0.03 -1.26454 3.86933 0.0486083 0.0480286 -0.000120861 0.0483199 8.50018e-07 272.979 
-0.33 -0.05 -1.76511 3.7496 0.0486472 0.0480511 1.68938e-05 0.0483748 8.51811e-07 272.713 
-0.37 -0.03 -1.5131 3.93036 0.0486131 0.0479414 -3.896e-05 0.0482559 8.49929e-07 272.645 
-0.33 -0.03 -1.97155 3.99081 0.0486127 0.0480216 2.1438e-05 0.0483493 8.50746e-07 272.911 
-0.49 -0.07 -0.00756506 2.01402 0.0485822 0.0482325 -0.000250688 0.0484187 8.51732e-07 272.986 
-0.47 -0.07 -0.173817 2.55315 0.0486169 0.048216 -0.000238044 0.0484518 8.51916e-07 273.114 
-0.45 -0.07 -0.378981 2.85525 0.0486584 0.048118 -0.000215405 0.0483924 8.5184e-07 272.803 
-0.49 -0.05 -0.0153016 2.12872 0.0485297 0.0482087 -0.000310912 0.0483458 8.50187e-07 273.07 
-0.43 -0.07 -0.704831 3.05351 0.0486366 0.0481069 -0.00015508 0.0483946 8.51271e-07 272.998 
-0.47 -0.05 -0.225673 2.7828 0.0485764 0.0481934 -0.000289543 0.0484028 8.5159e-07 272.942 
-0.41 -0.07 -0.8613 3.18667 0.0486326 0.0480626 -0.000123009 0.0483418 8.50809e-07 272.848 
-0.45 -0.05 -0.407708 3.08012 0.0485759 0.0480402 -0.000217787 0.0483327 8.50748e-07 272.816 
-0.49 -0.03 -0.0990331 2.29207 0.0485246 0.0481779 -0.000333675 0.0483351 8.50374e-07 272.95 
-0.39 -0.07 -1.08088 3.4036 0.0486641 0.0480779 -0.000102714 0.0483891 8.51903e-07 272.764 
-0.43 -0.05 -0.700617 3.28582 0.048642 0.0480932 -0.000161831 0.0483864 8.51647e-07 272.831 
-0.47 -0.03 -0.290058 2.91555 0.0485347 0.0481177 -0.000274307 0.0483215 8.50384e-07 272.87 
-0.27 -0.07 -2.46834 3.46701 0.0486987 0.0482224 0.000114246 0.048486 8.53169e-07 272.905 
-0.31 -0.05 -2.05738 3.70003 0.0486447 0.0480728 5.6777e-05 0.048378 8.51826e-07 272.726 
-0.27 -0.09 -2.36492 3.23772 0.0487338 0.0482113 8.99826e-05 0.0484892 8.53566e-07 272.796 
-0.31 -0.07 -2.01355 3.3448 0.0487312 0.0481111 5.42479e-05 0.0484278 8.53055e-07 272.614 
-0.29 -0.07 -2.33599 3.5305 0.0486978 0.048156 9.92433e-05 0.0484214 8.52184e-07 272.857 
-0.25 -0.07 -2.5185 3.03852 0.0486898 0.0482287 0.000110561 0.0484583 8.52942e-07 272.822 
-0.29 -0.05 -2.23687 3.62821 0.048669 0.0481548 8.40814e-05 0.048408 8.52229e-07 272.767 
-0.27 -0.05 -2.4681 3.54218 0.0486769 0.0481987 9.12508e-05 0.0484253 8.5233e-07 272.832 
-0.31 -0.03 -2.16267 3.91152 0.0486195 0.0480547 1.67603e-05 0.0483391 8.50887e-07 272.808 
-0.25 -0.05 -2.50567 3.18277 0.0486949 0.0482272 0.000111404 0.0484687 8.52961e-07 272.874 
-0.29 -0.03 -2.26662 3.86768 0.0486476 0.0481247 4.38078e-05 0.0484017 8.51947e-07 272.821 
-0.27 -0.03 -2.4019 3.6232 0.0486818 0.0481533 7.98954e-05 0.0484332 8.52973e-07 272.67 
-0.25 -0.03 -2.44538 3.23933 0.0486815 0.0482443 0.000103826 0.0484773 8.53356e-07 272.796 
-0.27 -0.01 -2.33938 3.83004 0.0485414 0.0481061 6.89194e-05 0.0483593 8.51388e-07 272.761 
-0.31 -0.25 -1.75829 1.67163 0.0488539 0.0483006 8.952e-05 0.0485784 8.54645e-07 272.953 
-0.29 -0.25 -1.82525 1.64998 0.0488674 0.048337 9.52029e-05 0.0485952 8.5457e-07 273.071 
-0.27 -0.25 -1.88851 1.58332 0.0488647 0.048354 8.36802e-05 0.0486057 8.55e-07 272.993 
-0.29 -0.11 -1.96785 2.90726 0.0487318 0.0481823 6.98275e-05 0.0484995 8.53994e-07 272.718 
-0.33 -0.09 -1.77941 3.19993 0.0487273 0.0481324 3.85224e-05 0.0483964 8.52098e-07 272.743 
-0.27 -0.11 -2.1616 3.01669 0.0487371 0.0482243 9.4958e-05 0.0484896 8.54181e-07 272.602 
-0.31 -0.09 -1.92032 3.21641 0.048698 0.0481315 7.03877e-05 0.0484204 8.51984e-07 272.915 
-0.29 -0.09 -2.12606 3.25199 0.0487379 0.0481974 8.19593e-05 0.0484715 8.53442e-07 272.736 
-0.33 -0.23 -1.45605 1.81628 0.0488365 0.0483192 7.91892e-05 0.0486162 8.55263e-07 272.968 
-0.31 -0.23 -1.44338 2.00706 0.0488241 0.048272 5.19034e-05 0.0485421 8.53773e-07 273.028 
-0.29 -0.23 -1.76591 1.66778 0.0488502 0.0483466 8.51657e-05 0.0486158 8.55039e-07 273.037 
-0.27 -0.23 -1.93778 1.60495 0.0488664 0.0483421 6.98193e-05 0.0485913 8.5436e-07 273.116 
-0.31 -0.21 -1.56883 1.96439 0.0488499 0.0482871 5.16415e-05 0.0485711 8.55353e-07 272.686 
-0.29 -0.21 -1.65608 1.93071 0.0488611 0.0483174 4.92926e-05 0.048588 8.55462e-07 272.746 
-0.27 -0.21 -1.71558 1.80142 0.0488559 0.0483336 0.000113104 0.0485935 8.55236e-07 272.849 
-0.31 -0.19 -1.5783 2.1687 0.048844 0.0482972 4.28173e-05 0.0485389 8.54142e-07 272.891 
-0.25 -0.21 -2.00923 1.65658 0.0488718 0.048298 9.8316e-05 0.0486037 8.55265e-07 272.897 
-0.29 -0.19 -1.72796 2.00736 0.0488294 0.0482686 8.46588e-05 0.0485386 8.54503e-07 272.774 
-0.27 -0.19 -1.8709 1.99529 0.0488094 0.0483034 0.000107564 0.0485548 8.54186e-07 272.967 
-0.31 -0.17 -1.57309 2.29618 0.0487864 0.0482894 3.08463e-05 0.0485337 8.54184e-07 272.849 
-0.25 -0.19 -2.12997 2.02381 0.0488018 0.0483005 0.000112174 0.0485543 8.54651e-07 272.816 
-0.29 -0.17 -1.72197 2.21174 0.048796 0.0482484 8.41398e-05 0.0485254 8.54009e-07 272.858 
-0.27 -0.17 -2.09577 2.38155 0.0488043 0.0482809 0.000101211 0.0485542 8.54463e-07 272.875 
-0.31 -0.15 -1.61206 2.53901 0.0487798 0.0482346 5.73578e-05 0.04851 8.5411e-07 272.739 
-0.25 -0.17 -2.40633 2.24205 0.048841 0.0482981 0.000109067 0.0485564 8.54191e-07 272.974 
-0.29 -0.15 -1.94562 2.51213 0.0487577 0.048204 0.000102704 0.0484634 8.53404e-07 272.703 
-0.27 -0.15 -2.18282 2.63247 0.0487688 0.0483064 8.9987e-05 0.0485493 8.54168e-07 272.942 
-0.31 -0.13 -1.83921 2.80054 0.0487362 0.0482017 6.28913e-05 0.04846 8.53008e-07 272.81 
-0.25 -0.15 -2.3613 2.45685 0.04876 0.0482677 9.83526e-05 0.048508 8.53769e-07 272.837 
-0.29 -0.13 -2.06569 2.83377 0.0487503 0.0481932 6.68793e-05 0.0484811 8.53869e-07 272.654 
-0.27 -0.13 -2.39064 2.7396 0.0487449 0.0482707 8.48093e-05 0.0485198 8.53974e-07 272.838 
-0.31 -0.11 -1.82015 3.17747 0.0487674 0.0481854 6.09452e-05 0.0484807 8.5297e-07 272.939 
-0.25 -0.13 -2.43864 2.60538 0.0487438 0.0482496 0.000126393 0.0484795 8.53415e-07 272.79 
-0.25 -0.25 -1.91839 1.39208 0.0488628 0.0483824 0.000101521 0.0486297 8.55864e-07 272.852 
-0.25 -0.23 -2.07471 1.57016 0.0488213 0.0483332 0.000109901 0.0485747 8.54834e-07 272.872 
-0.25 -0.11 -2.41265 2.82138 0.0487537 0.0482445 9.99011e-05 0.0484915 8.53426e-07 272.854 
-0.25 -0.09 -2.59883 2.96652 0.0487302 0.048261 0.0001118 0.0484876 8.53182e-07 272.91 
-0.25 -0.01 -2.71384 3.4621 0.0485346 0.0482022 0.000126313 0.0483737 8.51915e-07 272.674 
-0.23 -0.49 -0.737711 0.037876 0.0486792 0.0485512 0.000130998 0.0486144 8.55015e-07 273.037 
-0.21 -0.49 -0.797368 -0.035008 0.04872 0.0485722 0.000144657 0.0486522 8.54726e-07 273.342 
-0.19 -0.49 -0.818899 0.0516297 0.0487232 0.0486036 0.000178152 0.0486671 8.5563e-07 273.136 
-0.23 -0.47 -0.865509 0.0598477 0.0487469 0.0485508 0.000105186 0.0486538 8.55715e-07 273.035 
-0.17 -0.49 -0.976359 0.103882 0.0487416 0.0486061 0.000147155 0.0486764 8.55786e-07 273.139 
-0.21 -0.47 -1.00153 0.173144 0.0487419 0.048533 0.000135359 0.0486508 8.55724e-07 273.015 
-0.15 -0.49 -1.0535 0.000598789 0.0487321 0.0486561 0.000179671 0.048669 8.56035e-07 273.018 