ITEM: TIMESTEP
832500
ITEM: NUMBER OF CELLS
2500
ITEM: BOX BOUNDS ss ss pp
-0.5 0.5
-0.5 0.5
-0.5 0.5
ITEM: CELLS xc yc f_U[*] f_V[*] f_Tau[1] f_Tau[2] f_Tau[3] f_Press[*] f_Mrho[*] f_Ttra[*] 
-0.49 -0.49 -0.242842 0.229579 0.0487477 0.0485057 8.70041e-07 0.0486838 8.55921e-07 273.138 
-0.47 -0.49 -0.606007 -0.0151438 0.048735 0.0485637 -6.47025e-05 0.0486382 8.5498e-07 273.182 
-0.45 -0.49 -0.262711 -0.0297007 0.0486036 0.0484433 -2.63285e-05 0.0485386 8.55149e-07 272.569 
-0.49 -0.47 0.260352 0.311778 0.0487215 0.0484225 -4.12137e-05 0.0485568 8.52961e-07 273.37 
-0.43 -0.49 -0.328364 -0.152962 0.0485927 0.0486297 1.13095e-05 0.0486719 8.57107e-07 272.693 
-0.47 -0.47 0.192823 0.130788 0.0487166 0.0486616 1.26597e-05 0.04872 8.56495e-07 273.157 
-0.41 -0.49 0.0811178 -0.0518968 0.0486831 0.0485778 4.61967e-05 0.0486289 8.56031e-07 272.794 
-0.45 -0.47 -0.249804 -0.0242516 0.0486625 0.0484229 4.4393e-05 0.048518 8.53358e-07 273.024 
-0.49 -0.45 -0.0814697 0.0214629 0.0487215 0.0484528 -4.16114e-05 0.0485879 8.55262e-07 272.81 
-0.39 -0.49 0.431118 -0.39395 0.0487327 0.0484401 -1.29235e-05 0.0485337 8.55014e-07 272.584 
-0.43 -0.47 -0.18388 -0.19689 0.0486837 0.0486262 -7.6727e-06 0.0487082 8.57925e-07 272.636 
-0.47 -0.45 -0.00825415 0.33148 0.0487168 0.0485742 5.89641e-05 0.0486029 8.55006e-07 272.975 
-0.37 -0.49 0.343524 0.362143 0.0487924 0.0486558 0.00011772 0.0487301 8.5901e-07 272.414 
-0.41 -0.47 -0.406987 -0.0354657 0.0486306 0.0485607 -3.86348e-05 0.0486049 8.57489e-07 272.196 
-0.45 -0.45 -0.195703 0.137956 0.0487965 0.0484736 -5.45752e-06 0.0486004 8.54968e-07 272.973 
-0.49 -0.43 -0.218627 0.21875 0.0486671 0.0484889 2.26233e-06 0.0486002 8.5668e-07 272.427 
-0.35 -0.49 0.0984636 0.140675 0.0487396 0.0487038 0.00016433 0.0487002 8.57572e-07 272.703 
-0.39 -0.47 -0.661883 -0.350711 0.0486008 0.0484366 7.86173e-05 0.0484819 8.54159e-07 272.566 
-0.43 -0.45 -0.335156 0.287133 0.0488659 0.0486618 9.3491e-06 0.0486838 8.55615e-07 273.235 
-0.47 -0.43 -0.387965 0.368159 0.0487415 0.0485055 -2.98895e-05 0.0486313 8.56362e-07 272.702 
-0.37 -0.47 -0.701325 0.48961 0.0486564 0.0485484 1.79005e-05 0.0485917 8.54829e-07 272.969 
-0.41 -0.45 -0.661346 0.00347172 0.0487932 0.0486087 3.60496e-05 0.0486983 8.55261e-07 273.429 
-0.45 -0.43 -0.708825 0.487682 0.0487561 0.048681 -5.59369e-05 0.0486415 8.55332e-07 273.088 
-0.49 -0.41 -0.115346 0.513678 0.0490189 0.0485496 -3.38829e-05 0.0487486 8.58364e-07 272.723 
-0.35 -0.47 -0.606617 0.295344 0.048799 0.0486757 0.000125187 0.0487424 8.57373e-07 273.003 
-0.39 -0.45 -0.753228 -0.0295042 0.048749 0.048329 -2.45215e-05 0.0485372 8.53946e-07 272.944 
-0.43 -0.43 -0.59745 0.219536 0.0487657 0.0485589 -5.15334e-05 0.0486994 8.56513e-07 273.036 
-0.47 -0.41 -0.12412 0.449829 0.0489302 0.0485208 -6.40972e-05 0.0486771 8.57517e-07 272.592 
-0.37 -0.45 -0.733704 0.286619 0.0487313 0.0486446 3.78565e-05 0.0486464 8.5734e-07 272.476 
-0.41 -0.43 -0.898892 0.46206 0.0488579 0.0485703 6.50583e-05 0.0487068 8.56799e-07 272.987 
-0.45 -0.41 0.082357 0.253555 0.0490203 0.048655 2.10538e-05 0.0488188 8.59253e-07 272.833 
-0.49 -0.39 0.151544 0.307452 0.0488274 0.0485416 -6.28173e-05 0.0486591 8.56811e-07 272.715 
-0.35 -0.45 -0.728736 0.120344 0.0487642 0.0485999 2.925e-05 0.0486128 8.55436e-07 272.894 
-0.39 -0.43 -1.17528 0.141052 0.0488498 0.0483774 8.84736e-06 0.0485952 8.55019e-07 272.928 
-0.43 -0.41 -0.437445 0.346482 0.048891 0.0485574 -2.53738e-05 0.0487451 8.55886e-07 273.493 
-0.47 -0.39 0.170714 0.459743 0.0489145 0.0485524 -3.28241e-05 0.0486917 8.57692e-07 272.618 
-0.37 -0.43 -1.40729 0.192667 0.0488816 0.0485601 -2.18949e-05 0.0486828 8.58031e-07 272.46 
-0.41 -0.41 -0.482264 0.645943 0.0488132 0.0484664 7.73626e-06 0.0486437 8.5533e-07 273.101 
-0.45 -0.39 0.200107 0.448955 0.048901 0.0484728 5.28068e-05 0.0486568 8.55407e-07 273.15 
-0.35 -0.43 -1.60451 0.172462 0.0490249 0.0487005 -4.68128e-06 0.0488136 8.58141e-07 273.157 
-0.39 -0.41 -0.855248 0.350852 0.0488747 0.0484592 3.32134e-08 0.0486598 8.56526e-07 272.81 
-0.43 -0.39 -0.102664 0.950155 0.0489146 0.0486519 4.34165e-05 0.0487579 8.55326e-07 273.743 
-0.37 -0.41 -0.868589 0.373777 0.0488674 0.048647 -2.12423e-05 0.0487329 8.57065e-07 273.048 
-0.41 -0.39 -0.632236 0.80215 0.0488394 0.0484525 -2.12257e-05 0.0486299 8.56235e-07 272.735 
-0.35 -0.41 -1.01933 0.594279 0.0486953 0.0484956 -3.17423e-06 0.0486126 8.55702e-07 272.808 
-0.39 -0.39 -0.665766 0.431039 0.0488198 0.0485327 4.07819e-05 0.048665 8.55694e-07 273.105 
-0.37 -0.39 -0.657863 0.472904 0.0488211 0.0485296 3.55394e-05 0.0486615 8.55851e-07 273.035 
-0.35 -0.39 -0.8474 0.536245 0.0488585 0.0485088 0.000134126 0.0486292 8.54527e-07 273.276 
-0.37 -0.37 -0.99259 0.485319 0.0488456 0.0484951 4.98e-05 0.0486358 8.53455e-07 273.657 
-0.33 -0.49 -0.282839 0.0992175 0.0486747 0.04864 0.000116957 0.0486338 8.56613e-07 272.637 
-0.33 -0.47 -0.395326 0.539874 0.0488249 0.0486564 0.000120809 0.0487385 8.54357e-07 273.945 
-0.33 -0.43 -1.28874 0.249533 0.0488357 0.0484676 9.00651e-05 0.0486574 8.56665e-07 272.752 
-0.49 -0.37 -0.064249 0.274776 0.0487076 0.0485972 -8.25508e-05 0.0485991 8.54172e-07 273.22 
-0.47 -0.37 -0.0359378 0.588989 0.0487074 0.0484383 -2.66065e-05 0.0485486 8.54601e-07 272.799 
-0.45 -0.37 -0.629408 0.366249 0.0487075 0.0484491 -1.69653e-05 0.0485256 8.52493e-07 273.345 
-0.49 -0.35 0.11198 0.564316 0.0487607 0.0485906 -1.73467e-05 0.0486181 8.56561e-07 272.565 
-0.43 -0.37 -0.553189 1.13962 0.0487639 0.0486671 1.37749e-05 0.0486801 8.5456e-07 273.552 
-0.47 -0.35 -0.132307 0.756255 0.0487452 0.0484444 -1.59964e-05 0.0485161 8.5491e-07 272.518 
-0.45 -0.35 0.068653 0.834113 0.0487579 0.0484569 -5.66395e-05 0.0486446 8.54688e-07 273.311 
-0.49 -0.33 -0.101435 0.534084 0.0488209 0.0485324 3.20978e-05 0.0487281 8.58387e-07 272.601 
-0.39 -0.37 -0.33788 0.818633 0.0488637 0.0485668 4.8382e-05 0.0486412 8.54824e-07 273.248 
-0.43 -0.35 -0.168627 0.759867 0.0487806 0.0486454 -4.33196e-05 0.0487806 8.58003e-07 273.016 
-0.47 -0.33 0.0963688 0.70844 0.0488405 0.0485449 -1.15214e-06 0.0487356 8.5708e-07 273.058 
-0.41 -0.35 -0.154533 0.72542 0.0487495 0.048436 2.65387e-05 0.0486446 8.55641e-07 273.007 
-0.45 -0.33 -0.00990496 0.768926 0.0488332 0.0484207 -0.000113214 0.0486292 8.54525e-07 273.277 
-0.49 -0.31 -0.123923 0.698355 0.0487789 0.048515 -1.6759e-07 0.0485931 8.54947e-07 272.939 
-0.39 -0.35 -0.643379 1.13488 0.0488325 0.0485063 1.1829e-05 0.0486173 8.5543e-07 272.921 
-0.43 -0.33 -0.0801795 1.0689 0.0488964 0.0485513 -3.99758e-05 0.0487787 8.56765e-07 273.4 
-0.47 -0.31 -0.0225863 0.70122 0.0488522 0.048585 -5.44556e-05 0.0487312 8.56909e-07 273.088 
-0.37 -0.35 -0.741749 1.0195 0.0487878 0.0485459 7.93464e-05 0.0486176 8.56161e-07 272.689 
-0.41 -0.33 -0.452135 1.09056 0.0489328 0.0485028 -8.81294e-05 0.0486896 8.56023e-07 273.137 
-0.45 -0.31 -0.146442 1.0929 0.0488627 0.0485322 -6.60462e-05 0.0486732 8.54482e-07 273.538 
-0.49 -0.29 -0.112416 0.90315 0.0486807 0.0484789 -7.39103e-05 0.048613 8.54793e-07 273.1 
-0.35 -0.35 -1.44277 0.825192 0.0488195 0.0485236 3.46689e-05 0.048601 8.52399e-07 273.799 
-0.39 -0.33 -0.705695 1.29423 0.0488378 0.0484072 -1.0179e-05 0.0485547 8.55253e-07 272.626 
-0.43 -0.31 -0.412609 1.01315 0.048692 0.0484618 -0.0001318 0.0486038 8.54531e-07 273.132 
-0.47 -0.29 -0.39041 0.83563 0.0488226 0.0486108 -9.23166e-05 0.0487416 8.57353e-07 273.005 
-0.37 -0.33 -0.564066 1.5039 0.0489128 0.0486061 2.96451e-05 0.0486502 8.56202e-07 272.859 
-0.41 -0.31 -0.731846 1.3272 0.0487813 0.0483448 -1.34317e-05 0.0485767 8.54518e-07 272.984 
-0.45 -0.29 -0.330037 1.09679 0.0488846 0.0484659 3.96863e-05 0.0486943 8.56481e-07 273.018 
-0.49 -0.27 -0.141935 1.33911 0.0488183 0.0484999 -0.000112524 0.0486821 8.55853e-07 273.15 
-0.35 -0.33 -0.708785 1.1039 0.0488921 0.048466 1.27229e-05 0.0486153 8.54382e-07 273.245 
-0.39 -0.31 -0.614806 1.24052 0.0488785 0.0484279 2.62704e-05 0.0486177 8.54535e-07 273.208 
-0.43 -0.29 -0.390048 1.39968 0.0488511 0.0485445 -1.79552e-05 0.0486848 8.55083e-07 273.411 
-0.47 -0.27 -0.45967 0.965866 0.048773 0.0484798 -0.00013257 0.048671 8.54948e-07 273.376 
-0.37 -0.31 -0.542537 1.31012 0.0488306 0.0485023 5.60738e-05 0.048613 8.56461e-07 272.568 
-0.41 -0.29 -0.141888 1.40352 0.048771 0.0482962 -0.000136474 0.0485845 8.56101e-07 272.523 
-0.45 -0.27 -0.38896 1.11749 0.0488155 0.0484121 -2.58042e-05 0.0486144 8.55808e-07 272.784 
-0.35 -0.31 -0.934698 1.31716 0.0488345 0.0484998 1.745e-05 0.0486747 8.56773e-07 272.815 
-0.39 -0.29 -0.251173 1.40718 0.0488264 0.048375 -4.32451e-07 0.0486052 8.53318e-07 273.528 
-0.43 -0.27 -0.444872 1.466 0.0488543 0.0486317 1.79867e-05 0.0486763 8.55783e-07 273.139 
-0.37 -0.29 -0.755865 1.1668 0.0488345 0.0485626 -3.63662e-05 0.0487448 8.55849e-07 273.503 
-0.41 -0.27 -0.382189 1.15875 0.0487828 0.0483572 -8.56204e-05 0.0484881 8.53904e-07 272.682 
-0.35 -0.29 -0.290403 1.35677 0.0488749 0.0485012 5.33164e-05 0.0486927 8.56793e-07 272.909 
-0.39 -0.27 -0.557913 1.59185 0.0486777 0.048298 -0.000110333 0.0485315 8.54142e-07 272.85 
-0.33 -0.29 -0.245026 1.12059 0.0489635 0.0484073 1.6353e-05 0.0486656 8.57017e-07 272.686 
-0.37 -0.27 -0.375654 1.32984 0.0488823 0.0484983 -1.51368e-05 0.0487186 8.57991e-07 272.673 
-0.35 -0.27 -0.685489 1.6204 0.0489201 0.048528 6.08887e-05 0.0487021 8.5765e-07 272.689 
-0.33 -0.27 -1.23785 1.22452 0.0487884 0.0483524 3.63234e-05 0.048536 8.55439e-07 272.462 
-0.41 -0.37 -0.126783 0.771354 0.048892 0.0484238 4.05691e-05 0.0486613 8.55575e-07 273.121 
-0.35 -0.37 -0.697009 0.823519 0.048833 0.0485179 4.32191e-05 0.0486462 8.53836e-07 273.593 
-0.33 -0.37 -0.768913 0.26899 0.0488833 0.0485422 1.65091e-05 0.0486652 8.55191e-07 273.266 
-0.33 -0.35 -1.51119 0.676725 0.0488246 0.0485412 5.62909e-05 0.0486327 8.55017e-07 273.139 
-0.33 -0.31 -0.90275 0.890416 0.0487662 0.0484041 9.32553e-05 0.0486082 8.5579e-07 272.755 
-0.35 -0.25 -1.09921 1.64917 0.0487898 0.0484073 1.62892e-05 0.0486016 8.55988e-07 272.655 
-0.31 -0.49 -0.784347 0.546559 0.0487835 0.0486592 0.000119687 0.0487831 8.55496e-07 273.831 
-0.29 -0.49 -0.951938 -0.254156 0.0487233 0.0486227 -2.23066e-05 0.0485904 8.53765e-07 273.302 
-0.27 -0.49 -0.882665 -0.0369554 0.0486513 0.0486523 0.000111403 0.0486293 8.5503e-07 273.116 
-0.31 -0.47 -0.711605 0.615594 0.0488563 0.0486717 0.000115187 0.0487543 8.54808e-07 273.889 
-0.29 -0.47 -0.662922 -0.0768555 0.0488427 0.0486463 0.000124664 0.0487878 8.57071e-07 273.354 
-0.27 -0.47 -0.662044 -0.225998 0.048811 0.048597 9.76277e-05 0.0486902 8.55258e-07 273.385 
-0.31 -0.45 -0.281352 0.679989 0.0488587 0.0486352 9.11606e-05 0.0486447 8.56187e-07 272.833 
-0.29 -0.45 -0.410441 0.280809 0.0488157 0.0486652 0.000115689 0.048723 8.55765e-07 273.407 
-0.27 -0.45 -0.733122 0.0300816 0.0488485 0.0486003 0.000172924 0.0487001 8.55135e-07 273.48 
-0.31 -0.43 -1.07448 0.177562 0.0488767 0.0486538 6.87454e-05 0.0487612 8.58469e-07 272.76 
-0.29 -0.43 -1.14773 0.797393 0.0489168 0.0486624 0.000131576 0.0487353 8.56754e-07 273.16 
-0.27 -0.43 -1.09208 0.178058 0.048884 0.0485252 0.000164215 0.0487262 8.56569e-07 273.169 
-0.31 -0.41 -1.30058 0.26716 0.0488559 0.048664 0.000108045 0.0487366 8.56006e-07 273.407 
-0.25 -0.43 -1.10873 0.174934 0.0488404 0.0486165 0.000177791 0.0487122 8.54624e-07 273.712 
-0.29 -0.41 -1.10564 0.37591 0.0488616 0.0486363 0.000121762 0.0486967 8.55139e-07 273.46 
-0.27 -0.41 -1.2387 0.316898 0.0488606 0.048468 0.000139723 0.0486488 8.54364e-07 273.438 
-0.31 -0.39 -1.43217 0.444326 0.0488726 0.0486358 4.32743e-05 0.0487523 8.5667e-07 273.282 
-0.25 -0.41 -1.08048 0.471253 0.0489281 0.04866 0.000171239 0.0487809 8.57893e-07 273.053 
-0.29 -0.39 -1.2779 0.198689 0.0488382 0.0485241 0.000116999 0.0486672 8.56005e-07 273.017 
-0.27 -0.39 -1.62749 0.825518 0.0488408 0.0484975 0.000214553 0.0486449 8.54508e-07 273.371 
-0.31 -0.37 -0.7912 0.326754 0.0488218 0.0485367 4.01894e-05 0.048701 8.55786e-07 273.277 
-0.25 -0.39 -1.95697 0.316752 0.0487359 0.0485552 0.000205831 0.0486344 8.54927e-07 273.177 
-0.29 -0.37 -1.10055 0.453947 0.0488668 0.048474 0.000101947 0.0486836 8.56161e-07 273.06 
-0.27 -0.37 -1.01949 1.02877 0.0488604 0.0484581 0.000184689 0.0485997 8.54325e-07 273.175 
-0.31 -0.35 -1.6793 0.341113 0.0487918 0.0484853 1.77834e-05 0.0486874 8.56167e-07 273.079 
-0.29 -0.35 -1.03035 0.450055 0.0487478 0.0483676 0.000147052 0.0486016 8.54977e-07 272.977 
-0.27 -0.35 -1.35348 1.08945 0.0487869 0.0483961 0.000118971 0.0485942 8.56341e-07 272.501 
-0.31 -0.33 -0.855333 0.146078 0.0488444 0.0484802 0.000130205 0.0486437 8.56084e-07 272.861 
-0.29 -0.33 -1.60553 0.689983 0.0487827 0.0482943 8.52753e-05 0.048553 8.54318e-07 272.915 
-0.27 -0.33 -1.68105 1.24567 0.0488242 0.0484797 0.000179807 0.048694 8.57369e-07 272.733 
-0.31 -0.31 -1.27693 0.461788 0.0488417 0.0484363 0.000127611 0.0485871 8.55674e-07 272.673 
-0.29 -0.31 -1.587 0.886131 0.0489405 0.0483336 8.38539e-05 0.0486845 8.5693e-07 272.819 
-0.27 -0.31 -1.80956 1.54497 0.0489454 0.0485154 0.000135731 0.048737 8.56277e-07 273.322 
-0.31 -0.29 -1.0421 1.12144 0.0489345 0.0484509 3.76457e-05 0.0487408 8.57799e-07 272.859 
-0.25 -0.31 -1.90128 1.17387 0.0488526 0.0484124 0.000217464 0.0486564 8.56383e-07 272.836 
-0.29 -0.29 -1.45665 1.2102 0.048876 0.0483115 7.02024e-05 0.0486069 8.55282e-07 272.91 
-0.27 -0.29 -1.68851 1.50742 0.0488762 0.0484169 0.0001595 0.0485724 8.53915e-07 273.152 
-0.31 -0.27 -1.05471 1.29881 0.048759 0.0483895 5.51545e-05 0.0486778 8.55751e-07 273.158 
-0.25 -0.29 -2.09102 1.43437 0.04884 0.0483435 0.000309018 0.048607 8.54777e-07 273.071 
-0.29 -0.27 -1.25816 1.75643 0.0487574 0.0482932 0.000160584 0.0485588 8.539e-07 273.081 
-0.27 -0.27 -2.00546 1.88453 0.0486735 0.048237 0.000185815 0.0485009 8.52299e-07 273.268 
-0.25 -0.27 -2.0263 1.59112 0.0487258 0.0483443 0.000245451 0.048568 8.54758e-07 272.858 
-0.33 -0.45 -0.708611 0.417128 0.0489246 0.0486797 4.24372e-05 0.0487348 8.5665e-07 273.191 
-0.33 -0.41 -1.32055 -0.180207 0.048772 0.0484969 9.6691e-05 0.0486225 8.55404e-07 272.958 
-0.33 -0.39 -1.26012 0.144781 0.0488214 0.0484768 4.07209e-06 0.0486235 8.5469e-07 273.192 
-0.33 -0.33 -0.998752 0.586435 0.0488624 0.0484971 0.000100586 0.0486387 8.55357e-07 273.064 
-0.25 -0.49 -0.683989 -0.181433 0.0485934 0.048608 8.01524e-05 0.0487038 8.56012e-07 273.221 
-0.25 -0.47 -0.612686 -0.200634 0.0488605 0.0486239 0.000122143 0.0487342 8.568e-07 273.139 
-0.25 -0.45 -1.28199 -0.197425 0.0487967 0.0486096 9.49937e-05 0.0487289 8.54479e-07 273.852 
-0.25 -0.37 -1.43926 0.631675 0.048884 0.0486184 0.000209783 0.0487414 8.57213e-07 273.048 
-0.25 -0.35 -1.6339 1.15247 0.0488816 0.0485683 0.000167403 0.0486805 8.57277e-07 272.687 
-0.25 -0.33 -1.67783 1.31871 0.048749 0.0485387 4.77328e-05 0.0486563 8.56973e-07 272.648 
-0.49 -0.25 0.0302314 1.61455 0.0487487 0.0484434 -0.000133902 0.0486494 8.55247e-07 273.159 
-0.47 -0.25 -0.178951 1.17484 0.0487943 0.0484711 -4.30929e-05 0.0486115 8.56183e-07 272.648 
-0.45 -0.25 -0.150324 0.893926 0.0487508 0.0484094 -0.000109654 0.0485816 8.54388e-07 273.053 
-0.49 -0.23 0.0188982 1.62226 0.0485673 0.048424 -0.000203487 0.0485299 8.5267e-07 273.312 
-0.47 -0.23 -0.0210366 1.39263 0.0486764 0.0484056 -0.00022258 0.0485379 8.54279e-07 272.842 
-0.45 -0.23 -0.546321 0.916315 0.0487776 0.0484538 -0.000200107 0.0486363 8.53458e-07 273.659 
-0.49 -0.21 -0.0411303 1.48016 0.0488905 0.0485011 -0.000246341 0.0486683 8.56861e-07 272.751 
-0.43 -0.23 -0.660213 1.21337 0.0488176 0.048435 -7.69663e-05 0.0485587 8.53851e-07 273.096 
-0.47 -0.21 0.232133 1.14591 0.0488622 0.0483831 -0.000202822 0.0486228 8.56117e-07 272.733 
-0.41 -0.23 -0.494426 1.62273 0.048941 0.0483571 1.6404e-05 0.0486622 8.55619e-07 273.113 
-0.45 -0.21 0.119015 1.40874 0.0488599 0.0483654 -0.000142364 0.0486435 8.54321e-07 273.422 
-0.49 -0.19 -0.088408 1.20499 0.049014 0.0484983 -0.000189171 0.04868 8.56936e-07 272.792 
-0.39 -0.23 -0.605142 1.71532 0.0489872 0.0484044 -1.55132e-05 0.0487765 8.5577e-07 273.706 
-0.43 -0.21 -0.46438 1.50078 0.0489202 0.0484209 -0.000139738 0.0486344 8.54267e-07 273.388 
-0.47 -0.19 -0.240983 1.35376 0.0489185 0.0483055 -0.000193451 0.0486108 8.5633e-07 272.597 
-0.41 -0.21 -0.846985 1.76642 0.0488669 0.0483171 -2.25632e-05 0.0486068 8.54311e-07 273.219 
-0.45 -0.19 -0.390249 1.79723 0.0488786 0.0483951 -0.000102023 0.0486542 8.55592e-07 273.076 
-0.49 -0.17 0.171015 1.32646 0.0488794 0.0485113 -0.000207402 0.0487169 8.57241e-07 272.902 
-0.39 -0.21 -1.00931 2.05588 0.0489026 0.0483586 -2.31589e-05 0.0486667 8.56702e-07 272.792 
-0.43 -0.19 -0.556985 1.9778 0.0487906 0.0483048 -9.14465e-05 0.0485404 8.54975e-07 272.634 
-0.47 -0.17 -0.105703 1.89367 0.0488574 0.0482212 -0.000115248 0.0485813 8.54283e-07 273.085 
-0.41 -0.19 -0.847878 1.66805 0.0488095 0.04836 -8.75575e-05 0.0486388 8.55413e-07 273.047 
-0.45 -0.17 -0.255919 1.66738 0.0488639 0.0483471 -0.000154013 0.048698 8.55297e-07 273.416 
-0.49 -0.15 -0.199793 1.34093 0.048776 0.0483838 -0.000141855 0.0485553 8.54948e-07 272.726 
-0.39 -0.19 -0.822309 2.03487 0.0487356 0.0482595 -7.25341e-05 0.0484846 8.53481e-07 272.798 
-0.43 -0.17 -0.744002 2.39931 0.0488823 0.0482674 -8.26542e-05 0.048656 8.56161e-07 272.905 
-0.47 -0.15 0.27595 1.62662 0.0488124 0.0482376 -8.73102e-05 0.0484812 8.53876e-07 272.652 
-0.41 -0.17 -0.839317 1.9981 0.0488307 0.048338 -5.95724e-05 0.0486139 8.54768e-07 273.113 
-0.45 -0.15 -0.0825734 2.48653 0.0488128 0.0483563 -0.000102543 0.0486154 8.52688e-07 273.788 
-0.39 -0.17 -1.10544 1.81301 0.0488222 0.0482545 -4.81251e-05 0.0485452 8.54655e-07 272.763 
-0.43 -0.15 -0.408522 2.50212 0.0487149 0.0482137 -6.5876e-06 0.048535 8.53963e-07 272.927 
-0.41 -0.15 -0.666217 2.16423 0.0488097 0.0482539 -7.82579e-05 0.0485475 8.5445e-07 272.841 
-0.39 -0.15 -1.13362 2.59747 0.0488163 0.048296 -7.28013e-05 0.0485936 8.54356e-07 273.131 
-0.43 -0.25 0.272727 1.45711 0.0489085 0.0486728 -3.367e-05 0.0487129 8.56312e-07 273.176 
-0.41 -0.25 -0.0203183 1.41938 0.0488495 0.0483416 3.54985e-05 0.0486147 8.55456e-07 272.898 
-0.39 -0.25 -0.193387 1.69118 0.048837 0.0483883 -8.48759e-05 0.04858 8.55495e-07 272.691 
-0.33 -0.25 -0.948194 1.40017 0.0488516 0.0483931 7.6325e-05 0.0486115 8.54581e-07 273.159 
-0.37 -0.25 -0.823984 1.68809 0.0487728 0.0483128 -8.08809e-05 0.0485338 8.55529e-07 272.421 
-0.37 -0.23 -0.515023 2.29001 0.0488285 0.0483723 -2.56828e-05 0.048724 8.57062e-07 272.999 
-0.35 -0.23 -0.598621 1.39679 0.0487403 0.0483374 -1.13076e-05 0.0485598 8.54382e-07 272.932 
-0.37 -0.21 -1.29664 1.69758 0.048954 0.0483475 3.45971e-05 0.0486812 8.56153e-07 273.049 
-0.35 -0.21 -0.812815 1.69418 0.0489773 0.0483354 -7.01714e-06 0.0486708 8.55728e-07 273.126 
-0.33 -0.21 -0.951579 2.463 0.0490211 0.0483285 4.6835e-05 0.0487329 8.5918e-07 272.376 
-0.37 -0.19 -0.927799 1.95115 0.0489178 0.0483575 3.90232e-05 0.0486765 8.56773e-07 272.824 
-0.35 -0.19 -1.35587 1.79561 0.0489113 0.048304 -5.45701e-06 0.048628 8.56879e-07 272.519 
-0.33 -0.19 -1.28973 2.72762 0.0488627 0.0482888 3.25177e-05 0.0486541 8.58135e-07 272.267 
-0.37 -0.17 -1.24383 2.58481 0.048754 0.0482782 -8.88117e-05 0.0485296 8.54847e-07 272.615 
-0.35 -0.17 -1.68257 1.9644 0.0488324 0.0483194 2.04385e-05 0.048607 8.55734e-07 272.766 
-0.33 -0.17 -1.86108 2.82893 0.048844 0.0482374 2.21047e-05 0.0485493 8.56367e-07 272.241 
-0.37 -0.15 -1.4753 2.80034 0.048842 0.0482456 -2.89471e-05 0.0485327 8.52855e-07 273.268 
-0.35 -0.15 -1.86741 2.40222 0.0488029 0.0482741 -6.25452e-05 0.0485775 8.53878e-07 273.193 
-0.33 -0.15 -1.92783 2.62232 0.0487644 0.0481938 3.10289e-05 0.0485079 8.54854e-07 272.49 
-0.37 -0.13 -1.29207 2.99963 0.0487417 0.048214 -2.6784e-05 0.0484841 8.52782e-07 273.018 
-0.35 -0.13 -1.31887 3.02689 0.0486354 0.0482135 1.97047e-05 0.0484412 8.51892e-07 273.061 
-0.33 -0.13 -1.87758 2.53691 0.0487031 0.0482281 4.06702e-05 0.0484536 8.54048e-07 272.442 
-0.37 -0.11 -1.26015 3.20665 0.048862 0.0481789 4.93818e-05 0.0485552 8.53448e-07 273.205 
-0.35 -0.11 -1.8808 3.3152 0.0488602 0.048279 2.15644e-05 0.0485259 8.52871e-07 273.225 
-0.33 -0.11 -1.64362 2.62171 0.0487262 0.0481696 -5.08525e-05 0.0484411 8.54564e-07 272.207 
-0.35 -0.09 -1.2616 3.66418 0.0487345 0.0481798 3.17738e-05 0.0484136 8.51187e-07 273.132 
-0.49 -0.13 0.116642 1.57024 0.0486128 0.0482989 -0.000204563 0.0484612 8.54134e-07 272.457 
-0.47 -0.13 -0.256311 1.53417 0.0486098 0.0481506 -0.000179345 0.0483577 8.53205e-07 272.171 
-0.45 -0.13 -0.368866 2.96108 0.0487614 0.0483806 -9.03306e-05 0.0485783 8.55359e-07 272.725 
-0.49 -0.11 0.0149829 1.29037 0.04864 0.0482637 -0.000268693 0.0484201 8.53492e-07 272.431 
-0.43 -0.13 -0.419789 2.42338 0.0488133 0.0482551 -0.000124502 0.0485622 8.55399e-07 272.622 
-0.47 -0.11 -0.321825 2.3994 0.0487062 0.0481994 -0.000260088 0.0484617 8.5471e-07 272.277 
-0.41 -0.13 -1.02883 2.82523 0.0488804 0.0482669 -0.000107769 0.0485907 8.54179e-07 273.171 
-0.45 -0.11 -0.317986 2.51727 0.0487791 0.0482642 -0.000164894 0.0485387 8.53598e-07 273.064 
-0.49 -0.09 -0.232187 1.59369 0.048497 0.0483076 -0.000197427 0.0484154 8.52566e-07 272.7 
-0.39 -0.13 -1.40143 2.54835 0.0488132 0.048267 -7.48111e-05 0.0485488 8.5477e-07 272.747 
-0.43 -0.11 -0.448665 2.73062 0.0488553 0.0482254 -0.000192045 0.0485377 8.5387e-07 272.972 
-0.47 -0.09 -0.428455 2.54205 0.0485105 0.0482194 -0.00026459 0.048427 8.54055e-07 272.29 
-0.41 -0.11 -0.539081 3.34013 0.0487668 0.0482176 -5.05584e-05 0.0484891 8.5262e-07 273.098 
-0.45 -0.09 -0.580055 2.6525 0.0484893 0.0481563 -0.00032625 0.0482952 8.50808e-07 272.586 
-0.39 -0.11 -0.912118 2.73382 0.0488258 0.0481811 -3.91457e-05 0.0485287 8.53874e-07 272.92 
-0.43 -0.09 -0.919499 3.09158 0.0484816 0.0481195 -0.000131758 0.0483311 8.50209e-07 272.98 
-0.41 -0.09 -0.775074 3.43747 0.0485762 0.0480905 -0.000125703 0.048366 8.50553e-07 273.067 
-0.39 -0.09 -0.71754 2.87904 0.0486373 0.0481855 -3.90709e-05 0.0483742 8.50671e-07 273.075 
-0.37 -0.09 -1.18392 3.66845 0.048651 0.0481743 -4.96105e-05 0.0483933 8.51838e-07 272.809 
-0.35 -0.03 -2.07025 4.09211 0.0487119 0.0481623 -0.000189243 0.0484355 8.5326e-07 272.592 
-0.37 -0.07 -1.27012 3.61575 0.0486222 0.0480753 -8.18494e-05 0.0483777 8.51529e-07 272.82 
-0.41 -0.05 -0.697672 3.8431 0.0487896 0.0480717 -0.000110669 0.0483899 8.5212e-07 272.699 
-0.45 -0.03 -0.395776 3.29851 0.0486242 0.0480159 -0.000253131 0.0483245 8.5148e-07 272.536 
-0.35 -0.07 -1.35501 3.973 0.0486716 0.048139 -5.89632e-05 0.048433 8.5123e-07 273.228 
-0.39 -0.05 -1.03231 3.49752 0.0487219 0.0481024 -0.000125236 0.0484134 8.5373e-07 272.317 
-0.43 -0.03 -0.728791 3.59425 0.0486162 0.0480128 -0.000264809 0.0483177 8.5103e-07 272.641 
-0.33 -0.07 -1.5209 3.4576 0.0488146 0.0481522 -1.91372e-05 0.0484832 8.53377e-07 272.823 
-0.37 -0.05 -1.63359 3.98744 0.0487132 0.048018 -8.05889e-05 0.0483642 8.51868e-07 272.635 
-0.41 -0.03 -0.730258 3.89276 0.0487003 0.0480103 -0.000141031 0.0482674 8.50489e-07 272.531 
-0.35 -0.05 -1.47938 3.69796 0.0486512 0.0481837 -0.00011433 0.0484146 8.53429e-07 272.42 
-0.39 -0.03 -1.17749 4.21619 0.0486581 0.048139 -2.66289e-05 0.0483764 8.5047e-07 273.152 
-0.33 -0.05 -1.9779 4.10074 0.0486668 0.0481183 -0.000149643 0.04834 8.5294e-07 272.156 
-0.37 -0.03 -1.7462 4.01136 0.0486635 0.0480394 -0.000111579 0.0482734 8.50827e-07 272.456 
-0.33 -0.03 -2.03625 4.35657 0.0486808 0.0481178 -9.25932e-05 0.0484372 8.52872e-07 272.725 
-0.49 -0.07 -0.0662413 2.13778 0.0487044 0.0484425 -0.00015241 0.0485558 8.53529e-07 273.182 
-0.47 -0.07 -0.146042 2.47494 0.0486755 0.0482605 -0.000272279 0.0485159 8.5334e-07 273.019 
-0.45 -0.07 -0.489009 2.77594 0.0486735 0.0480545 -0.000230651 0.0483773 8.51376e-07 272.867 
-0.49 -0.05 -0.139293 2.25392 0.0484729 0.0483427 -0.000286903 0.0484027 8.51835e-07 272.863 
-0.43 -0.07 -0.336014 3.37438 0.0486462 0.0481243 -0.00014924 0.0484189 8.5039e-07 273.418 
-0.47 -0.05 -0.60989 2.4918 0.0486746 0.0483756 -0.000298293 0.0484817 8.53242e-07 272.858 
-0.41 -0.07 -0.889067 3.52999 0.0486077 0.0480894 -0.000147382 0.0483202 8.50052e-07 272.969 
-0.45 -0.05 -0.433413 3.0722 0.048584 0.0479692 -0.000302116 0.0483321 8.49514e-07 273.209 
-0.49 -0.03 0.0464834 2.5492 0.048712 0.0483768 -0.000243096 0.0484948 8.53277e-07 272.92 
-0.39 -0.07 -1.28375 3.01076 0.0486125 0.0481061 -0.00012048 0.0483749 8.53794e-07 272.08 
-0.43 -0.05 -0.578624 3.47116 0.0487249 0.048118 -0.000205028 0.0484174 8.50881e-07 273.252 
-0.47 -0.03 -0.053231 2.55751 0.0486256 0.0482855 -0.000253649 0.0484413 8.53747e-07 272.469 
-0.27 -0.07 -2.43321 3.48004 0.0487173 0.0481588 0.000117768 0.0483925 8.53469e-07 272.283 
-0.31 -0.05 -2.03656 3.97858 0.048719 0.0481228 7.42677e-06 0.048406 8.53855e-07 272.236 
-0.27 -0.09 -2.57896 3.45547 0.0488097 0.0482711 3.37415e-05 0.0485378 8.53616e-07 273.054 
-0.31 -0.07 -2.36276 3.55006 0.0489307 0.0482021 1.65421e-05 0.0485732 8.54563e-07 272.95 
-0.29 -0.07 -2.44772 3.82633 0.0489115 0.0482041 4.60109e-05 0.0484981 8.53203e-07 272.962 
-0.25 -0.07 -2.58564 3.15653 0.0487386 0.0481935 7.05159e-05 0.0484367 8.5147e-07 273.172 
-0.29 -0.05 -2.08317 3.75589 0.0486229 0.0480847 8.58082e-05 0.0482651 8.50613e-07 272.478 
-0.27 -0.05 -2.60884 3.83956 0.0486007 0.0481513 0.000170214 0.0483281 8.51065e-07 272.689 
-0.31 -0.03 -2.52844 4.09274 0.04859 0.0478919 -1.45499e-05 0.0481948 8.51106e-07 271.924 
-0.25 -0.05 -2.59192 3.43779 0.0486095 0.0481741 0.000121906 0.0483508 8.51942e-07 272.536 
-0.29 -0.03 -2.85868 4.37157 0.0487052 0.0480743 0.000119783 0.0483599 8.49994e-07 273.212 
-0.27 -0.03 -2.65822 3.71573 0.0487695 0.048145 0.000108435 0.0484812 8.54599e-07 272.421 
-0.25 -0.03 -2.55884 3.34367 0.0487173 0.048262 0.000127463 0.0485003 8.53836e-07 272.772 
-0.27 -0.01 -1.81279 3.85988 0.0486419 0.0481402 0.000103728 0.0484374 8.51922e-07 273.03 
-0.31 -0.25 -1.41831 1.75357 0.0488582 0.0483387 0.000103745 0.0485957 8.55689e-07 272.717 
-0.29 -0.25 -2.05836 2.01653 0.048947 0.0482065 9.70767e-05 0.0485345 8.54706e-07 272.687 
-0.27 -0.25 -1.78997 1.89589 0.0488485 0.0482253 0.000200001 0.0485969 8.54536e-07 273.092 
-0.29 -0.11 -2.39896 3.02566 0.0487313 0.0482539 7.1784e-05 0.0485123 8.55305e-07 272.371 
-0.33 -0.09 -1.93081 2.74517 0.0488403 0.0482132 0.000142958 0.048454 8.52887e-07 272.815 
-0.27 -0.11 -2.66579 3.10646 0.0487136 0.0482235 5.89087e-05 0.0485118 8.54804e-07 272.528 
-0.31 -0.09 -2.04372 3.52576 0.0487528 0.0481025 1.51584e-05 0.0484456 8.50283e-07 273.603 
-0.29 -0.09 -2.23596 3.37461 0.0487468 0.0482107 3.38998e-05 0.0484039 8.50509e-07 273.295 
-0.33 -0.23 -1.14317 1.80903 0.0487459 0.0483006 6.85398e-05 0.0486591 8.58266e-07 272.253 
-0.31 -0.23 -1.45533 1.93822 0.0488354 0.0483452 2.19333e-05 0.0486335 8.57137e-07 272.468 
-0.29 -0.23 -1.27186 2.13352 0.0487614 0.0481588 0.000129561 0.0485361 8.55126e-07 272.562 
-0.27 -0.23 -1.58538 1.52717 0.0488639 0.0482258 0.000149566 0.048608 8.57646e-07 272.163 
-0.31 -0.21 -1.45113 2.25489 0.0488995 0.0482816 8.13811e-05 0.0486127 8.57498e-07 272.237 
-0.29 -0.21 -2.01757 2.0593 0.0488912 0.0481922 6.15151e-05 0.0486323 8.56422e-07 272.689 
-0.27 -0.21 -1.88302 1.9929 0.0489838 0.0482011 9.54583e-05 0.0486593 8.57031e-07 272.646 
-0.31 -0.19 -1.55899 2.34219 0.0488565 0.0483737 8.62761e-05 0.0485953 8.5667e-07 272.403 
-0.25 -0.21 -1.95506 1.44335 0.0490099 0.0483289 7.1102e-05 0.0487134 8.56844e-07 273.009 
-0.29 -0.19 -1.6254 2.46779 0.0488381 0.0481813 0.000105214 0.0485127 8.5565e-07 272.264 
-0.27 -0.19 -1.96556 1.93798 0.0487475 0.0481343 0.000105919 0.0484539 8.52943e-07 272.797 
-0.31 -0.17 -1.63133 2.12243 0.0488467 0.0483275 8.71474e-05 0.0485747 8.55548e-07 272.644 
-0.25 -0.19 -1.97612 2.04801 0.0487826 0.0483331 9.24697e-05 0.0485109 8.54429e-07 272.642 
-0.29 -0.17 -1.51499 2.51103 0.0488453 0.0481923 0.000119503 0.0485614 8.55684e-07 272.526 
-0.27 -0.17 -2.0805 2.44171 0.0487246 0.048207 0.00011011 0.0485522 8.54699e-07 272.788 
-0.31 -0.15 -1.92403 2.20451 0.0487623 0.0482868 6.54869e-05 0.0485339 8.55631e-07 272.389 
-0.25 -0.17 -2.60164 2.26701 0.0487155 0.0483194 7.75172e-05 0.0484853 8.54132e-07 272.594 
-0.29 -0.15 -2.10027 2.91129 0.0487214 0.048083 0.000187626 0.0484279 8.54263e-07 272.229 
-0.27 -0.15 -2.3195 2.81989 0.0488526 0.0483363 7.53147e-05 0.0486045 8.55646e-07 272.78 
-0.31 -0.13 -1.87729 2.51461 0.0487025 0.0481708 8.73099e-05 0.048486 8.53722e-07 272.728 
-0.25 -0.15 -2.68227 2.41474 0.0488934 0.0482675 7.1014e-05 0.0486024 8.55617e-07 272.778 
-0.29 -0.13 -2.37837 3.08699 0.0488126 0.048233 -3.4813e-06 0.0485839 8.55417e-07 272.737 
-0.27 -0.13 -2.37503 2.90654 0.0488054 0.0482748 5.87685e-05 0.0486086 8.56577e-07 272.506 
-0.31 -0.11 -1.96911 3.54125 0.04876 0.0481508 4.60843e-05 0.0484675 8.51864e-07 273.219 
-0.25 -0.13 -2.45171 3.00771 0.0488544 0.0481956 0.000102002 0.0485261 8.54767e-07 272.62 
-0.25 -0.25 -1.522 1.62947 0.0489385 0.0483258 0.000168091 0.0486754 8.56423e-07 272.93 
-0.25 -0.23 -1.77554 1.65569 0.0488921 0.0482854 0.000107801 0.0485766 8.5518e-07 272.772 
-0.25 -0.11 -2.71175 2.99853 0.0487479 0.0481756 2.302e-05 0.0484585 8.5219e-07 273.063 
-0.25 -0.09 -2.71155 2.98111 0.04872 0.048199 0.0001089 0.0484801 8.52523e-07 273.078 
-0.25 -0.01 -2.48783 3.80601 0.0486423 0.0481804 0.000152365 0.0484002 8.53072e-07 272.453 
-0.23 -0.49 -0.588045 0.0176445 0.0486251 0.0485264 8.86268e-05 0.0485682 8.54547e-07 272.927 
-0.21 -0.49 -0.566584 -0.237229 0.0487071 0.0485236 8.06416e-05 0.0486358 8.55196e-07 273.099 
-0.19 -0.49 -0.750203 0.00175182 0.0486741 0.0486527 0.000232725 0.0486841 8.54853e-07 273.48 
-0.23 -0.47 -0.828113 -0.374225 0.0487486 0.048537 6.50868e-05 0.0486558 8.55717e-07 273.045 
-0.17 -0.49 -0.89267 0.370835 0.0485991 0.0484873 0.000147543 0.0485882 8.54647e-07 273.007 
-0.21 -0.47 -1.16744 0.374413 0.0486298 0.0483535 9.85445e-05 0.0485483 8.53164e-07 273.257 
-0.15 -0.49 -0.849862 0.00280734 0.0485558 0.0484272 0.000256753 0.048478 8.54795e-07 272.341 
-0.19 -0.47 -1.53581 0.0784338 0.0487544 0.0485518 0.000128393 0.0486585 8.54413e-07 273.477 