ITEM: TIMESTEP
953000
ITEM: NUMBER OF CELLS
2500
ITEM: BOX BOUNDS ss ss pp
-0.5 0.5
-0.5 0.5
-0.5 0.5
ITEM: CELLS xc yc f_U[*] f_V[*] f_Tau[1] f_Tau[2] f_Tau[3] f_Press[*] f_Mrho[*] f_Ttra[*] 
-0.49 -0.49 -0.104194 0.0167034 0.0486962 0.0485792 -6.83896e-05 0.0487101 8.55779e-07 273.33 
-0.47 -0.49 -0.0470815 0.0309193 0.0486541 0.0485849 -1.80382e-05 0.0486264 8.55304e-07 273.012 
-0.45 -0.49 -0.0862433 0.021162 0.048645 0.048556 3.41428e-05 0.0485911 8.5548e-07 272.758 
-0.49 -0.47 0.0628536 0.0101367 0.0486837 0.0485791 -2.78835e-05 0.0486338 8.54897e-07 273.183 
-0.43 -0.49 -0.182706 0.042883 0.048649 0.0485802 -2.02104e-06 0.0485942 8.55013e-07 272.924 
-0.47 -0.47 -0.0115498 0.0624399 0.0486929 0.048552 -2.14567e-05 0.0486601 8.54739e-07 273.382 
-0.41 -0.49 -0.283713 0.0272868 0.0486731 0.0485196 5.58259e-05 0.048593 8.55313e-07 272.822 
-0.45 -0.47 -0.00408724 0.146456 0.0486976 0.0485497 2.27272e-05 0.0486254 8.54997e-07 273.104 
-0.49 -0.45 -0.0203129 0.0117586 0.0487396 0.0485898 -2.47511e-05 0.0486627 8.55531e-07 273.144 
-0.39 -0.49 -0.259186 -0.0162642 0.0486874 0.0484733 -4.51305e-06 0.0485847 8.545e-07 273.035 
-0.43 -0.47 -0.0276127 0.0385683 0.0486842 0.0485615 7.63135e-06 0.0486349 8.55015e-07 273.152 
-0.47 -0.45 -0.0718771 0.170312 0.0487191 0.0485102 1.53762e-05 0.0486316 8.5501e-07 273.135 
-0.37 -0.49 -0.339057 0.105763 0.048721 0.0485495 -1.07808e-07 0.0486373 8.55959e-07 272.864 
-0.41 -0.47 -0.214663 0.276931 0.0486823 0.0485046 2.94842e-05 0.0486215 8.55861e-07 272.807 
-0.45 -0.45 -0.200193 0.075451 0.048749 0.0485538 -6.86791e-06 0.0486619 8.56364e-07 272.873 
-0.49 -0.43 -0.0604427 0.0938003 0.0487261 0.0485518 -2.66984e-05 0.0486492 8.56339e-07 272.81 
-0.35 -0.49 -0.4207 -0.00536239 0.0487164 0.0485569 7.31537e-05 0.0486207 8.55491e-07 272.921 
-0.39 -0.47 -0.49922 0.138748 0.0487206 0.0485054 1.45209e-05 0.0486237 8.55337e-07 272.987 
-0.43 -0.45 -0.329063 0.31196 0.0488011 0.0485621 1.8644e-05 0.0486688 8.54986e-07 273.352 
-0.47 -0.43 -0.216248 0.278821 0.0487551 0.0485129 -2.74853e-05 0.0486766 8.56539e-07 272.9 
-0.37 -0.47 -0.501682 0.0750995 0.0486786 0.0484771 8.13872e-06 0.0485681 8.54458e-07 272.955 
-0.41 -0.45 -0.328667 0.369174 0.0487559 0.048514 -8.47667e-07 0.0486312 8.55222e-07 273.065 
-0.45 -0.43 -0.334399 0.32408 0.0487704 0.0486047 -5.33062e-05 0.0486844 8.56473e-07 272.965 
-0.49 -0.41 -0.0525036 0.33662 0.0487552 0.0485075 -1.24731e-05 0.0486207 8.56147e-07 272.711 
-0.35 -0.47 -0.649781 0.0666796 0.0487195 0.0485256 7.12433e-05 0.0486382 8.55449e-07 273.032 
-0.39 -0.45 -0.394083 0.172707 0.0487386 0.048477 3.3515e-05 0.0486027 8.55358e-07 272.862 
-0.43 -0.43 -0.403303 0.334984 0.04878 0.0484901 2.14194e-06 0.0486471 8.55886e-07 272.943 
-0.47 -0.41 -0.322842 0.373478 0.048784 0.0486003 -6.08389e-05 0.0487235 8.57464e-07 272.868 
-0.37 -0.45 -0.672696 0.29834 0.048706 0.0485179 3.37008e-05 0.0485915 8.54922e-07 272.938 
-0.41 -0.43 -0.469531 0.287068 0.0488102 0.0485236 1.97123e-05 0.0486646 8.56089e-07 272.976 
-0.45 -0.41 -0.344744 0.302254 0.0487956 0.0485274 -2.41716e-05 0.0486811 8.56448e-07 272.954 
-0.49 -0.39 -0.0221605 0.402885 0.0487737 0.0485414 -2.58943e-05 0.0486613 8.5642e-07 272.852 
-0.35 -0.45 -0.740073 0.151944 0.0486962 0.0484546 3.99503e-05 0.0485549 8.54981e-07 272.714 
-0.39 -0.43 -0.428289 0.338359 0.0487987 0.0484462 1.56996e-05 0.0486076 8.5472e-07 273.093 
-0.43 -0.41 -0.432289 0.425856 0.0487619 0.0485235 -1.5072e-05 0.0486504 8.55546e-07 273.07 
-0.47 -0.39 0.0853386 0.429639 0.0487765 0.0486092 -6.75747e-05 0.0486694 8.56852e-07 272.76 
-0.37 -0.43 -0.583567 0.405159 0.0488285 0.0484991 6.51128e-05 0.048635 8.55915e-07 272.865 
-0.41 -0.41 -0.545277 0.291585 0.0487487 0.0484653 1.61654e-05 0.0485914 8.54715e-07 273.004 
-0.45 -0.39 -0.0522254 0.600382 0.0487525 0.0484476 -3.05346e-05 0.0486135 8.55263e-07 272.953 
-0.35 -0.43 -0.658256 0.225389 0.0488393 0.0485151 1.16015e-07 0.0486427 8.56488e-07 272.726 
-0.39 -0.41 -0.501661 0.364462 0.0487877 0.0484745 1.21635e-05 0.0485905 8.55256e-07 272.826 
-0.43 -0.39 -0.277239 0.426727 0.0487939 0.0485438 4.45916e-06 0.0486777 8.56291e-07 272.985 
-0.37 -0.41 -0.490393 0.608211 0.0487984 0.0484786 1.59345e-05 0.048616 8.55457e-07 272.905 
-0.41 -0.39 -0.350695 0.574393 0.0487502 0.0484403 -1.3346e-05 0.0486109 8.55389e-07 272.898 
-0.35 -0.41 -0.883691 0.419962 0.048754 0.0485227 8.04282e-06 0.0485835 8.5552e-07 272.702 
-0.39 -0.39 -0.629913 0.323472 0.0487654 0.0484717 7.36843e-06 0.0486111 8.5582e-07 272.762 
-0.37 -0.39 -0.664658 0.607337 0.0487855 0.0484738 2.13689e-05 0.048601 8.54889e-07 273.002 
-0.35 -0.39 -0.597237 0.722255 0.0488053 0.0485144 8.229e-05 0.0486285 8.55686e-07 272.902 
-0.37 -0.37 -0.776854 0.527323 0.0488048 0.0484658 -4.78008e-07 0.0486198 8.54715e-07 273.163 
-0.33 -0.49 -0.580444 0.0449827 0.0486781 0.0485005 7.86389e-05 0.0486022 8.54986e-07 272.978 
-0.33 -0.47 -0.568354 0.258743 0.0486979 0.0485351 7.29397e-05 0.0486256 8.55164e-07 273.052 
-0.33 -0.43 -0.671984 0.0414497 0.0487932 0.0485206 2.60494e-05 0.0486188 8.56183e-07 272.689 
-0.49 -0.37 0.0115932 0.336718 0.0488088 0.0486046 -3.34559e-05 0.0486915 8.56276e-07 273.067 
-0.47 -0.37 -0.0414082 0.523696 0.048809 0.0485543 -3.80615e-05 0.0486865 8.56328e-07 273.023 
-0.45 -0.37 -0.223126 0.635823 0.0487858 0.0484761 -1.92064e-05 0.0486403 8.54777e-07 273.258 
-0.49 -0.35 0.00315204 0.474228 0.0488697 0.0486056 -5.93936e-05 0.0487157 8.56819e-07 273.03 
-0.43 -0.37 -0.401315 0.739339 0.0487873 0.0484984 -1.97114e-05 0.048658 8.5498e-07 273.293 
-0.47 -0.35 -0.0461409 0.635158 0.0488761 0.0485487 -8.99982e-06 0.0487163 8.56165e-07 273.242 
-0.45 -0.35 -0.248208 0.862203 0.0488421 0.0484652 3.22755e-06 0.0486893 8.55613e-07 273.267 
-0.49 -0.33 -0.0640836 0.491257 0.0488251 0.0485323 -2.96699e-05 0.048702 8.57096e-07 272.865 
-0.39 -0.37 -0.62083 0.569805 0.0487666 0.0484333 8.23134e-06 0.0485793 8.55524e-07 272.678 
-0.43 -0.35 -0.154275 0.610874 0.0488355 0.0484857 -5.23932e-05 0.0486774 8.5588e-07 273.114 
-0.47 -0.33 -0.136279 0.711972 0.0488696 0.0485349 -1.74434e-05 0.0486808 8.55953e-07 273.11 
-0.41 -0.35 -0.377537 0.826373 0.0488232 0.0484391 4.25632e-05 0.0486252 8.55679e-07 272.886 
-0.45 -0.33 -0.083291 0.91706 0.0488934 0.0484767 -3.52812e-05 0.048666 8.55775e-07 273.084 
-0.49 -0.31 -0.0508306 0.601598 0.0487467 0.0484962 -9.00941e-05 0.0485882 8.5494e-07 272.914 
-0.39 -0.35 -0.57342 0.824878 0.0488708 0.0484808 -1.47705e-05 0.0486546 8.55618e-07 273.07 
-0.43 -0.33 -0.305562 0.823777 0.0488863 0.0484651 2.65072e-05 0.0486552 8.55185e-07 273.212 
-0.47 -0.31 -0.246177 0.910075 0.048769 0.0485143 -6.12803e-05 0.0486103 8.54958e-07 273.032 
-0.37 -0.35 -0.895197 0.80349 0.0487768 0.0484106 4.16663e-05 0.04858 8.55182e-07 272.79 
-0.41 -0.33 -0.502026 0.918288 0.0488632 0.0484647 -1.50366e-05 0.0486585 8.55797e-07 273.035 
-0.45 -0.31 -0.204363 0.794287 0.0488089 0.048473 -4.90673e-05 0.0486244 8.55183e-07 273.04 
-0.49 -0.29 -0.12172 0.887915 0.0487591 0.0484773 -9.8313e-05 0.0486043 8.55526e-07 272.817 
-0.35 -0.35 -1.07708 0.838462 0.0487683 0.0484078 3.2251e-05 0.0486046 8.5487e-07 273.029 
-0.39 -0.33 -0.701539 1.1085 0.0488136 0.0484219 4.11184e-05 0.0486002 8.55338e-07 272.854 
-0.43 -0.31 -0.321776 1.11144 0.0487937 0.0484334 -3.61845e-05 0.0486164 8.55135e-07 273.01 
-0.47 -0.29 -0.205765 0.870398 0.048765 0.0485008 -7.4818e-05 0.0486244 8.55634e-07 272.895 
-0.37 -0.33 -0.640251 1.05792 0.0488538 0.048437 3.79592e-05 0.0486374 8.55148e-07 273.124 
-0.41 -0.31 -0.650536 1.05148 0.0488464 0.0484076 3.84371e-05 0.04864 8.56033e-07 272.856 
-0.45 -0.29 -0.273156 0.810147 0.0487787 0.0484385 -3.75389e-05 0.0485966 8.54855e-07 272.988 
-0.49 -0.27 -0.154152 0.989461 0.0488223 0.0484426 -8.49957e-05 0.0486557 8.56162e-07 272.903 
-0.35 -0.33 -0.750251 0.819867 0.0488564 0.0484185 3.6859e-06 0.0486507 8.55731e-07 273.012 
-0.39 -0.31 -0.612338 1.19725 0.0489005 0.0484618 2.3572e-05 0.0486739 8.55969e-07 273.067 
-0.43 -0.29 -0.374572 1.25793 0.0487831 0.0484 -3.61904e-05 0.0485867 8.55141e-07 272.841 
-0.47 -0.27 -0.173202 0.907908 0.0488482 0.0484852 -8.43606e-05 0.048707 8.56516e-07 273.078 
-0.37 -0.31 -0.727299 0.984611 0.0488845 0.0484328 1.11297e-05 0.0486565 8.55791e-07 273.025 
-0.41 -0.29 -0.278611 1.15684 0.0488172 0.0483576 -4.52033e-05 0.0485971 8.54603e-07 273.072 
-0.45 -0.27 -0.250107 1.05743 0.0488541 0.0484076 -7.05826e-05 0.0486267 8.56313e-07 272.692 
-0.35 -0.31 -0.931732 1.14638 0.0488783 0.0484176 6.52819e-05 0.0486595 8.55219e-07 273.225 
-0.39 -0.29 -0.461741 1.38194 0.0488339 0.0484715 5.16148e-06 0.0486305 8.54638e-07 273.248 
-0.43 -0.27 -0.47138 1.24028 0.0488486 0.0484022 -8.12018e-06 0.0486113 8.55266e-07 272.94 
-0.37 -0.29 -0.765978 1.0282 0.0488436 0.0484204 1.97254e-05 0.0486551 8.54521e-07 273.423 
-0.41 -0.27 -0.557153 1.31838 0.0488286 0.0483758 -4.42309e-05 0.048568 8.54964e-07 272.793 
-0.35 -0.29 -1.10144 1.53519 0.0488585 0.0483906 5.72504e-05 0.0486087 8.54695e-07 273.107 
-0.39 -0.27 -0.938652 1.52724 0.0488148 0.0484144 -2.61218e-05 0.0486445 8.55316e-07 273.11 
-0.33 -0.29 -1.07882 1.39385 0.0488899 0.0484067 4.02936e-05 0.0486369 8.55166e-07 273.115 
-0.37 -0.27 -1.12179 1.47444 0.0488472 0.0483835 9.46992e-06 0.0486271 8.55062e-07 273.093 
-0.35 -0.27 -1.2317 1.53162 0.0488687 0.0483981 2.48415e-05 0.0486204 8.55986e-07 272.761 
-0.33 -0.27 -1.43396 1.43804 0.0488462 0.0483646 7.42263e-05 0.0485723 8.54538e-07 272.952 
-0.41 -0.37 -0.415195 0.706274 0.048822 0.0484689 1.26069e-06 0.0486458 8.55626e-07 273.018 
-0.35 -0.37 -0.799134 0.9175 0.0488084 0.0484676 3.06816e-05 0.0486263 8.55591e-07 272.92 
-0.33 -0.37 -0.847812 0.496272 0.0487941 0.0484835 3.89824e-05 0.0486211 8.54929e-07 273.102 
-0.33 -0.35 -1.12551 0.776398 0.0488064 0.0484665 8.28916e-05 0.0486532 8.55933e-07 272.962 
-0.33 -0.31 -1.26987 1.20822 0.0488612 0.0483726 6.15852e-05 0.0486184 8.55095e-07 273.034 
-0.35 -0.25 -1.18832 1.62178 0.0488096 0.048358 3.13636e-05 0.0485834 8.55236e-07 272.792 
-0.31 -0.49 -0.5577 0.0337996 0.0487364 0.0485892 7.04774e-05 0.0487004 8.55967e-07 273.216 
-0.29 -0.49 -0.654581 0.0576849 0.0487166 0.0485179 7.64852e-05 0.0486385 8.55021e-07 273.171 
-0.27 -0.49 -0.811083 -0.0322182 0.0486945 0.0484458 0.000129699 0.0485651 8.55133e-07 272.723 
-0.31 -0.47 -0.811796 -0.0483376 0.0487051 0.0485645 8.81726e-05 0.0486432 8.54753e-07 273.283 
-0.29 -0.47 -0.713143 0.0414157 0.048698 0.0484488 0.000126838 0.0485973 8.54616e-07 273.068 
-0.27 -0.47 -0.621017 0.115634 0.0487068 0.0484581 8.5928e-05 0.0485544 8.54217e-07 272.955 
-0.31 -0.45 -0.566576 0.266105 0.0487948 0.0485159 6.55913e-05 0.0486407 8.5557e-07 273.007 
-0.29 -0.45 -0.745584 8.7498e-05 0.048798 0.0484677 0.000121568 0.0486308 8.54658e-07 273.243 
-0.27 -0.45 -1.06843 0.324063 0.048789 0.0484843 0.000112036 0.0486127 8.55129e-07 272.991 
-0.31 -0.43 -0.937075 0.301454 0.0487765 0.0484511 7.94197e-05 0.0486082 8.55927e-07 272.711 
-0.29 -0.43 -1.14533 0.31472 0.048797 0.0484556 0.000107345 0.0486252 8.55643e-07 272.897 
-0.27 -0.43 -1.13409 0.437345 0.0488044 0.0484882 0.000129256 0.0486338 8.5531e-07 273.052 
-0.31 -0.41 -1.18047 0.439858 0.0487806 0.048424 0.00010028 0.0485988 8.54966e-07 272.965 
-0.25 -0.43 -1.2289 0.293988 0.0487509 0.04847 0.000138254 0.0486201 8.53729e-07 273.48 
-0.29 -0.41 -1.23244 0.379284 0.0487759 0.048459 9.84026e-05 0.0486295 8.55356e-07 273.013 
-0.27 -0.41 -1.31012 0.349513 0.0487751 0.0484502 0.000144788 0.0486126 8.5564e-07 272.827 
-0.31 -0.39 -1.05066 0.523031 0.0487944 0.0483874 7.29424e-05 0.0485808 8.54505e-07 273.011 
-0.25 -0.41 -1.36203 0.402012 0.0487965 0.0484929 0.000115002 0.0486451 8.55143e-07 273.169 
-0.29 -0.39 -1.20156 0.353427 0.0488227 0.0484043 0.000105076 0.0486281 8.56066e-07 272.779 
-0.27 -0.39 -1.33108 0.619135 0.0488258 0.0484577 0.000147056 0.0486807 8.56053e-07 273.078 
-0.31 -0.37 -1.12111 0.686983 0.0487519 0.0483565 6.76625e-05 0.0485562 8.54659e-07 272.824 
-0.25 -0.39 -1.51849 0.612217 0.0488285 0.0485203 0.000139687 0.0486815 8.55723e-07 273.188 
-0.29 -0.37 -1.30649 0.633423 0.0487655 0.0483714 9.41666e-05 0.0485769 8.55428e-07 272.695 
-0.27 -0.37 -1.54308 0.686549 0.0488373 0.0484404 7.58798e-05 0.0486562 8.55622e-07 273.078 
-0.31 -0.35 -1.29582 0.781461 0.0488513 0.0484021 4.30229e-05 0.0486342 8.55622e-07 272.954 
-0.29 -0.35 -1.25584 0.854654 0.0488436 0.0483295 4.99448e-05 0.0486218 8.55497e-07 272.924 
-0.27 -0.35 -1.43975 0.868204 0.0488403 0.0484254 9.26425e-05 0.0486248 8.55634e-07 272.898 
-0.31 -0.33 -1.13771 0.919574 0.0488346 0.0484011 5.20224e-05 0.0486265 8.55546e-07 272.935 
-0.29 -0.33 -1.52847 0.998295 0.0488096 0.0483069 6.68748e-05 0.0485658 8.54783e-07 272.838 
-0.27 -0.33 -1.54827 0.951183 0.0488089 0.0483983 0.000113012 0.048591 8.55322e-07 272.808 
-0.31 -0.31 -1.29353 1.023 0.04887 0.0483851 7.51924e-05 0.0486309 8.5504e-07 273.121 
-0.29 -0.31 -1.36576 1.15454 0.0488553 0.0483243 8.7231e-05 0.0486265 8.55226e-07 273.037 
-0.27 -0.31 -1.71093 1.20551 0.0488042 0.048367 9.27418e-05 0.0485803 8.54343e-07 273.06 
-0.31 -0.29 -1.41828 1.19707 0.048833 0.0483199 7.41272e-05 0.0485759 8.53894e-07 273.179 
-0.25 -0.31 -1.82606 1.18665 0.0487962 0.0484176 0.000142521 0.0486228 8.54431e-07 273.271 
-0.29 -0.29 -1.75266 1.34361 0.0488138 0.0483146 8.4632e-05 0.0485711 8.53739e-07 273.201 
-0.27 -0.29 -1.80841 1.29159 0.0488789 0.0483553 0.000123162 0.0486019 8.54289e-07 273.199 
-0.31 -0.27 -1.54919 1.49766 0.0488328 0.0483304 8.95181e-05 0.0486125 8.54923e-07 273.056 
-0.25 -0.29 -1.97616 1.31373 0.0488895 0.0484145 0.000111403 0.0486462 8.55256e-07 273.139 
-0.29 -0.27 -1.61612 1.6502 0.0488164 0.048286 0.000124162 0.0485543 8.53822e-07 273.081 
-0.27 -0.27 -1.89977 1.54408 0.0487757 0.0483213 7.9017e-05 0.0485627 8.53492e-07 273.233 
-0.25 -0.27 -2.09488 1.42337 0.0487956 0.0483672 0.000135079 0.0486006 8.54907e-07 272.994 
-0.33 -0.45 -0.709053 0.0808419 0.0487979 0.04857 4.46176e-05 0.0486409 8.56144e-07 272.826 
-0.33 -0.41 -1.2329 0.257278 0.0487912 0.0484787 5.44165e-05 0.0485807 8.55291e-07 272.76 
-0.33 -0.39 -0.893599 0.415618 0.0487733 0.0484458 2.8871e-05 0.0485887 8.54915e-07 272.925 
-0.33 -0.33 -0.938974 0.979827 0.0488336 0.0484262 3.12038e-05 0.0486247 8.54838e-07 273.151 
-0.25 -0.49 -0.768916 -0.0167862 0.048663 0.0485102 0.000112227 0.0486162 8.55644e-07 272.846 
-0.25 -0.47 -0.835609 0.119209 0.0487466 0.0485333 9.46896e-05 0.048627 8.55629e-07 272.912 
-0.25 -0.45 -1.17288 0.151485 0.0487638 0.0484842 8.24581e-05 0.048627 8.54763e-07 273.188 
-0.25 -0.37 -1.6443 0.713239 0.0488531 0.0485208 0.000123372 0.0486862 8.55683e-07 273.227 
-0.25 -0.35 -1.67359 0.865387 0.0488467 0.0484541 0.000125672 0.048641 8.55302e-07 273.095 
-0.25 -0.33 -1.66362 1.09667 0.0487745 0.0484516 9.77824e-05 0.0486463 8.55331e-07 273.115 
-0.49 -0.25 0.0382517 1.23512 0.0487886 0.0484477 -0.000129991 0.048658 8.55625e-07 273.087 
-0.47 -0.25 -0.314812 1.01493 0.0488561 0.0484453 -0.000105959 0.0486441 8.55795e-07 272.955 
-0.45 -0.25 -0.492107 1.10544 0.0488072 0.048378 -4.85012e-05 0.0486346 8.5582e-07 272.894 
-0.49 -0.23 -0.00868543 1.22521 0.0487427 0.0484713 -0.000159641 0.0485836 8.54945e-07 272.886 
-0.47 -0.23 -0.0924563 1.34365 0.0487377 0.0483507 -0.000137687 0.0485298 8.54482e-07 272.732 
-0.45 -0.23 -0.469031 1.24004 0.0487955 0.0483652 -8.21185e-05 0.0486183 8.55007e-07 273.062 
-0.49 -0.21 -0.160817 1.37021 0.0487505 0.0484645 -0.000174253 0.0486186 8.55919e-07 272.772 
-0.43 -0.23 -0.482777 1.39027 0.0488098 0.0484052 -7.47293e-05 0.0486197 8.54838e-07 273.123 
-0.47 -0.21 -0.329948 1.44584 0.0487835 0.0483046 -0.000154347 0.0485745 8.54708e-07 272.911 
-0.41 -0.23 -0.742965 1.77587 0.0488231 0.048343 -3.32185e-05 0.0485916 8.54428e-07 273.096 
-0.45 -0.21 -0.229401 1.3861 0.0488014 0.0483012 -8.41095e-05 0.0485866 8.54645e-07 272.999 
-0.49 -0.19 -0.0393456 1.48798 0.048824 0.0484407 -0.000156992 0.0486305 8.55859e-07 272.858 
-0.39 -0.23 -0.761883 1.89135 0.0488417 0.0483432 1.2198e-05 0.0486184 8.54458e-07 273.237 
-0.43 -0.21 -0.663161 1.59026 0.0488303 0.0484149 -5.73754e-05 0.0486337 8.5528e-07 273.061 
-0.47 -0.19 -0.0325059 1.4778 0.0487941 0.0482783 -0.000108166 0.0485635 8.54704e-07 272.851 
-0.41 -0.21 -0.736193 1.92364 0.0488193 0.0482882 -3.98843e-05 0.0485924 8.54466e-07 273.089 
-0.45 -0.19 -0.400187 1.7345 0.0487976 0.0483026 -0.000101935 0.0485737 8.53844e-07 273.183 
-0.49 -0.17 0.111579 1.34485 0.0487845 0.0484147 -0.000158742 0.0486071 8.55706e-07 272.775 
-0.39 -0.21 -0.879761 2.04582 0.0488543 0.0483301 -3.18312e-05 0.0486252 8.55426e-07 272.966 
-0.43 -0.19 -0.669907 1.93222 0.0488157 0.0483629 -0.000109339 0.0486236 8.55163e-07 273.041 
-0.47 -0.17 -0.167127 2.02186 0.0487887 0.0482175 -0.000124736 0.0485157 8.53685e-07 272.907 
-0.41 -0.19 -0.841735 1.94214 0.0488393 0.0482985 -4.07595e-05 0.0485697 8.5444e-07 272.969 
-0.45 -0.17 -0.339873 1.8736 0.048824 0.048324 -0.000143187 0.0485976 8.54589e-07 273.079 
-0.49 -0.15 -0.0400352 1.40287 0.0487081 0.0483068 -0.000156395 0.0485204 8.53901e-07 272.864 
-0.39 -0.19 -0.954691 2.12102 0.0488081 0.0482775 -4.78274e-05 0.0485506 8.54306e-07 272.905 
-0.43 -0.17 -0.536874 2.10116 0.0487908 0.0483019 -8.79351e-05 0.0485943 8.5461e-07 273.054 
-0.47 -0.15 0.141852 1.91097 0.0487432 0.048257 -0.000149049 0.0484808 8.53857e-07 272.656 
-0.41 -0.17 -0.627468 2.0643 0.0487555 0.0482671 -4.95663e-05 0.0485349 8.53011e-07 273.231 
-0.45 -0.15 -0.138207 2.22329 0.0487585 0.0483054 -0.000139115 0.0485481 8.53747e-07 273.07 
-0.39 -0.17 -0.832773 2.30694 0.0487602 0.0482542 -3.34426e-05 0.0485079 8.53108e-07 273.048 
-0.43 -0.15 -0.291994 2.19273 0.0487623 0.0482069 -5.48533e-05 0.048513 8.53652e-07 272.902 
-0.41 -0.15 -0.51676 2.30802 0.048778 0.0482595 -4.76122e-05 0.0485301 8.53425e-07 273.072 
-0.39 -0.15 -0.815028 2.70628 0.0487828 0.0482912 -4.83439e-05 0.0485345 8.54488e-07 272.756 
-0.43 -0.25 -0.385418 1.37951 0.0488213 0.048431 -3.05727e-05 0.0486155 8.55516e-07 272.883 
-0.41 -0.25 -0.498838 1.5594 0.0488578 0.048333 -3.62871e-05 0.0486154 8.55215e-07 272.979 
-0.39 -0.25 -0.813799 1.8369 0.0488639 0.0484255 -1.83727e-05 0.0486436 8.55717e-07 272.977 
-0.33 -0.25 -1.30354 1.68075 0.0488026 0.0483188 7.0165e-05 0.0485813 8.54875e-07 272.896 
-0.37 -0.25 -1.09183 1.51545 0.0488114 0.0483507 3.0837e-06 0.0485907 8.55392e-07 272.784 
-0.37 -0.23 -0.949653 1.93531 0.0488784 0.0483934 2.13158e-05 0.0486654 8.56078e-07 272.984 
-0.35 -0.23 -1.13985 1.80561 0.0488254 0.0482958 2.82825e-05 0.0485821 8.55178e-07 272.804 
-0.37 -0.21 -0.9448 1.99027 0.0488445 0.0483117 2.0822e-05 0.0486151 8.55019e-07 273.04 
-0.35 -0.21 -1.06735 2.01102 0.0488738 0.0483302 2.93031e-05 0.0486039 8.54767e-07 273.057 
-0.33 -0.21 -1.27938 2.11525 0.0488806 0.048292 4.03298e-05 0.0486003 8.55631e-07 272.762 
-0.37 -0.19 -1.11446 2.09096 0.0488434 0.0483124 -3.8751e-06 0.0485793 8.55109e-07 272.81 
-0.35 -0.19 -1.16237 2.08113 0.048851 0.0483059 3.00742e-05 0.0485612 8.55192e-07 272.682 
-0.33 -0.19 -1.26495 2.36123 0.0488268 0.048236 7.18813e-05 0.0485541 8.54861e-07 272.748 
-0.37 -0.17 -0.950643 2.30884 0.0488024 0.0482702 -4.20294e-05 0.048555 8.53706e-07 273.121 
-0.35 -0.17 -1.36524 2.34952 0.0487995 0.0482445 3.66816e-05 0.0485407 8.54259e-07 272.864 
-0.33 -0.17 -1.54448 2.47295 0.0488317 0.0482341 5.93648e-05 0.0485367 8.54458e-07 272.778 
-0.37 -0.15 -1.22756 2.48369 0.0487674 0.0482172 -1.13584e-05 0.0484514 8.52559e-07 272.905 
-0.35 -0.15 -1.26301 2.49015 0.048747 0.0481936 -5.45448e-07 0.0484751 8.53955e-07 272.593 
-0.33 -0.15 -1.47728 2.5604 0.048768 0.0482259 1.26521e-05 0.048496 8.5445e-07 272.552 
-0.37 -0.13 -1.13715 2.63118 0.0487774 0.0481905 6.15307e-06 0.0484855 8.53294e-07 272.862 
-0.35 -0.13 -1.43215 2.89698 0.0487512 0.0481733 9.71734e-06 0.048457 8.53906e-07 272.506 
-0.33 -0.13 -1.65167 2.7074 0.0487454 0.048217 5.17708e-05 0.0484508 8.53767e-07 272.516 
-0.37 -0.11 -1.07641 3.04473 0.0487899 0.0481693 1.17231e-06 0.0484812 8.52657e-07 273.042 
-0.35 -0.11 -1.52492 2.97237 0.0487715 0.0481862 2.8597e-05 0.0484612 8.53283e-07 272.729 
-0.33 -0.11 -1.69211 2.97914 0.0487711 0.0481658 1.58114e-05 0.0484356 8.53028e-07 272.667 
-0.35 -0.09 -1.39113 3.40752 0.048749 0.0482006 2.46768e-05 0.0484759 8.52561e-07 273.043 
-0.49 -0.13 -0.102547 1.4634 0.0486865 0.0482724 -0.000178035 0.0484876 8.53817e-07 272.707 
-0.47 -0.13 -0.151866 1.98569 0.0487131 0.0482434 -0.000174174 0.0484611 8.5341e-07 272.688 
-0.45 -0.13 -0.131135 2.38909 0.048726 0.0482778 -0.000148068 0.0484746 8.53188e-07 272.835 
-0.49 -0.11 0.00356123 1.55193 0.0487297 0.0482781 -0.000214127 0.0484902 8.52872e-07 273.024 
-0.43 -0.13 -0.344805 2.46679 0.0487343 0.0481206 -0.00011465 0.0484562 8.52518e-07 272.945 
-0.47 -0.11 -0.330327 2.20361 0.0486978 0.0482395 -0.000170734 0.0484763 8.52906e-07 272.935 
-0.41 -0.13 -0.851061 2.55456 0.0488025 0.0482519 -7.40704e-05 0.0485281 8.5325e-07 273.116 
-0.45 -0.11 -0.430322 2.30836 0.0487325 0.0482232 -0.000155692 0.0484957 8.5264e-07 273.129 
-0.49 -0.09 -0.217067 1.84134 0.0485523 0.0482223 -0.0002165 0.0483885 8.51763e-07 272.806 
-0.39 -0.13 -0.948543 2.90682 0.0488052 0.0482719 -2.67402e-05 0.0485636 8.54137e-07 273.032 
-0.43 -0.11 -0.445757 2.8143 0.0487498 0.0481316 -0.000132258 0.0484585 8.52325e-07 273.02 
-0.47 -0.09 -0.358846 2.41608 0.0486275 0.0482546 -0.000215209 0.0484512 8.52473e-07 272.932 
-0.41 -0.11 -0.425687 2.82063 0.0487443 0.0481963 -0.000101875 0.0484824 8.53021e-07 272.932 
-0.45 -0.09 -0.601517 2.48622 0.0486442 0.0481703 -0.000180723 0.0483825 8.51793e-07 272.763 
-0.39 -0.11 -0.922944 3.08651 0.0487473 0.0481826 -4.56391e-05 0.048524 8.52754e-07 273.252 
-0.43 -0.09 -0.762609 2.80105 0.0486485 0.048094 -0.000154335 0.0484192 8.52114e-07 272.866 
-0.41 -0.09 -0.918923 3.03681 0.0487095 0.0481306 -0.000132751 0.0484478 8.52681e-07 272.846 
-0.39 -0.09 -0.855287 3.24944 0.0487359 0.0481583 -3.9524e-05 0.0484536 8.52778e-07 272.848 
-0.37 -0.09 -1.18076 3.271 0.0486965 0.0481154 -4.48263e-07 0.0484054 8.51435e-07 273.006 
-0.35 -0.03 -1.74635 3.89468 0.0486021 0.0480984 -3.34068e-05 0.0483376 8.50872e-07 272.804 
-0.37 -0.07 -1.2468 3.57765 0.0486936 0.0480994 -3.70507e-05 0.0484161 8.52174e-07 272.83 
-0.41 -0.05 -0.984914 3.40467 0.0486114 0.0480093 -0.000114826 0.0483253 8.5083e-07 272.748 
-0.45 -0.03 -0.590132 3.31087 0.0485314 0.048013 -0.000245593 0.0483095 8.50397e-07 272.798 
-0.35 -0.07 -1.5348 3.7101 0.0487261 0.0481458 -7.83031e-06 0.0484375 8.52446e-07 272.863 
-0.39 -0.05 -1.2633 3.54056 0.0486202 0.0480882 -9.82747e-05 0.0483326 8.5068e-07 272.838 
-0.43 -0.03 -0.704959 3.72139 0.0485227 0.0480471 -0.000191315 0.0482989 8.50192e-07 272.804 
-0.33 -0.07 -1.73415 3.49593 0.0487734 0.0481287 2.76427e-05 0.0484467 8.52284e-07 272.967 
-0.37 -0.05 -1.53242 3.93037 0.048629 0.0480691 -0.000100958 0.0483394 8.5023e-07 273.02 
-0.41 -0.03 -0.850433 3.69008 0.0485969 0.0480215 -0.000136543 0.0482937 8.5004e-07 272.823 
-0.35 -0.05 -1.58724 3.62008 0.0485758 0.0480815 -4.10623e-05 0.0483227 8.50572e-07 272.816 
-0.39 -0.03 -1.26842 3.94246 0.04861 0.0480761 -0.000118914 0.048341 8.49683e-07 273.205 
-0.33 -0.05 -1.83113 3.87073 0.0485919 0.0480664 1.37767e-05 0.0483357 8.51844e-07 272.482 
-0.37 -0.03 -1.58848 3.9595 0.0486166 0.0479625 -2.9606e-05 0.0482598 8.49812e-07 272.705 
-0.33 -0.03 -1.98011 4.17976 0.0485958 0.0480144 1.7823e-05 0.0483321 8.50305e-07 272.955 
-0.49 -0.07 0.0444626 2.08709 0.0485795 0.048214 -0.000233514 0.048401 8.51275e-07 273.033 
-0.47 -0.07 -0.113539 2.45698 0.0485958 0.0482297 -0.000234404 0.0484562 8.52268e-07 273.026 
-0.45 -0.07 -0.271371 2.79269 0.0486374 0.0481087 -0.000189553 0.0483718 8.50941e-07 272.975 
-0.49 -0.05 -0.0522501 2.13549 0.0484662 0.0481762 -0.000312755 0.0482971 8.4964e-07 272.971 
-0.43 -0.07 -0.72515 3.16041 0.0486165 0.0481555 -0.000154182 0.0484259 8.51567e-07 273.08 
-0.47 -0.05 -0.200616 2.70099 0.048545 0.0482137 -0.00029407 0.0483856 8.51308e-07 272.935 
-0.41 -0.07 -0.920665 3.18892 0.0485634 0.0480549 -0.000117347 0.0483044 8.50388e-07 272.772 
-0.45 -0.05 -0.387625 3.01972 0.0485588 0.0480266 -0.000213078 0.0483016 8.49682e-07 272.983 
-0.49 -0.03 -0.044097 2.28658 0.0485148 0.0481417 -0.00034113 0.048323 8.50399e-07 272.873 
-0.39 -0.07 -1.11622 3.27368 0.0485977 0.048074 -9.8022e-05 0.0483529 8.51826e-07 272.585 
-0.43 -0.05 -0.597757 3.47915 0.0486455 0.0481382 -0.000145841 0.0484242 8.51924e-07 272.956 
-0.47 -0.03 -0.249406 2.84617 0.0485373 0.0481292 -0.000270364 0.0483287 8.50854e-07 272.76 
-0.27 -0.07 -2.51019 3.5822 0.0486532 0.0481632 0.00011054 0.0484178 8.52255e-07 272.814 
-0.31 -0.05 -2.1345 3.92207 0.0486291 0.0480706 7.59235e-05 0.0483787 8.51658e-07 272.784 
-0.27 -0.09 -2.51732 3.37102 0.0487374 0.0481808 0.000102004 0.0484642 8.53466e-07 272.688 
-0.31 -0.07 -2.10727 3.4784 0.048755 0.0481176 6.65825e-05 0.0484504 8.52945e-07 272.776 
-0.29 -0.07 -2.43421 3.73457 0.0486819 0.0481435 0.000139685 0.0484007 8.51809e-07 272.86 
-0.25 -0.07 -2.52362 2.96637 0.0486919 0.0481908 0.000110706 0.0484343 8.52004e-07 272.987 
-0.29 -0.05 -2.30307 3.70837 0.048695 0.0481365 0.000116719 0.0483908 8.51751e-07 272.823 
-0.27 -0.05 -2.38667 3.61926 0.0486921 0.0481679 9.48852e-05 0.0484048 8.51456e-07 272.996 
-0.31 -0.03 -2.28287 4.11356 0.0485772 0.0480531 1.70437e-05 0.0482923 8.49913e-07 272.856 
-0.25 -0.05 -2.45579 3.13261 0.0487136 0.0481851 0.000104947 0.0484581 8.52186e-07 273.063 
-0.29 -0.03 -2.30411 3.85917 0.0485805 0.0480592 4.26536e-05 0.0483184 8.50392e-07 272.85 
-0.27 -0.03 -2.47946 3.63156 0.0486306 0.0481851 8.9735e-05 0.0484308 8.52886e-07 272.685 
-0.25 -0.03 -2.32411 3.12416 0.048637 0.0481764 9.75169e-05 0.0484083 8.52277e-07 272.753 
-0.27 -0.01 -2.07907 3.74563 0.0485105 0.0481284 7.24745e-05 0.0483689 8.51485e-07 272.785 
-0.31 -0.25 -1.63789 1.77732 0.0488534 0.0482854 0.000103842 0.0485754 8.54593e-07 272.953 
-0.29 -0.25 -1.95524 1.72934 0.0489047 0.0483165 0.000109662 0.048597 8.54685e-07 273.045 
-0.27 -0.25 -1.96669 1.66785 0.0489029 0.0483294 9.62233e-05 0.0486224 8.54891e-07 273.122 
-0.29 -0.11 -2.08892 2.97255 0.0487851 0.0481762 6.71508e-05 0.0485004 8.5434e-07 272.612 
-0.33 -0.09 -1.75628 3.17507 0.0487506 0.0481488 4.00882e-05 0.0484204 8.52662e-07 272.698 
-0.27 -0.11 -2.26772 3.14213 0.0487818 0.0482048 8.73897e-05 0.048486 8.53717e-07 272.73 
-0.31 -0.09 -1.92477 3.3276 0.0487042 0.0481508 5.78626e-05 0.0484336 8.51695e-07 273.082 
-0.29 -0.09 -2.14508 3.43425 0.0487294 0.0481674 6.30722e-05 0.0484512 8.53007e-07 272.761 
-0.33 -0.23 -1.39798 1.7279 0.0488535 0.0483084 8.96959e-05 0.0486211 8.55624e-07 272.88 
-0.31 -0.23 -1.51644 2.07313 0.048851 0.0482747 3.65424e-05 0.0485751 8.5473e-07 272.907 
-0.29 -0.23 -1.56152 1.8715 0.0488354 0.0483361 8.64555e-05 0.0486111 8.55105e-07 272.99 
-0.27 -0.23 -1.84651 1.65597 0.0488309 0.0483104 8.82784e-05 0.0485677 8.54255e-07 273.018 
-0.31 -0.21 -1.56717 2.18049 0.0488544 0.0482462 7.06675e-05 0.0485863 8.55434e-07 272.745 
-0.29 -0.21 -1.78249 1.98127 0.0488693 0.0483174 7.90001e-05 0.048623 8.55516e-07 272.925 
-0.27 -0.21 -1.72053 1.92817 0.0488641 0.0483271 0.000139852 0.0486071 8.55201e-07 272.936 
-0.31 -0.19 -1.47885 2.34719 0.0488379 0.0482715 6.11059e-05 0.0485426 8.54506e-07 272.796 
-0.25 -0.21 -1.99612 1.73217 0.0488534 0.0482128 0.000102493 0.0485669 8.54647e-07 272.888 
-0.29 -0.19 -1.65756 2.16956 0.048829 0.0482709 9.01602e-05 0.0485395 8.55068e-07 272.6 
-0.27 -0.19 -1.90439 2.00462 0.0488252 0.0482811 0.000133817 0.0485527 8.53779e-07 273.085 
-0.31 -0.17 -1.50297 2.26887 0.0488062 0.0482585 3.95535e-05 0.0485448 8.54558e-07 272.792 
-0.25 -0.19 -2.07036 2.08924 0.0488432 0.0482499 0.000126608 0.0485448 8.54203e-07 272.905 
-0.29 -0.17 -1.61689 2.4657 0.0488345 0.0482503 9.44156e-05 0.0485459 8.53874e-07 273.017 
-0.27 -0.17 -2.06087 2.51305 0.0488113 0.048256 0.000119926 0.0485656 8.54696e-07 272.865 
-0.31 -0.15 -1.67243 2.61748 0.048767 0.0482182 7.01594e-05 0.0484985 8.54042e-07 272.696 
-0.25 -0.17 -2.50808 2.25982 0.0488514 0.0482706 0.000117455 0.0485391 8.53742e-07 273.021 
-0.29 -0.15 -1.92018 2.65697 0.0487507 0.0481829 0.000109384 0.0484734 8.53581e-07 272.703 
-0.27 -0.15 -2.11091 2.8063 0.0487733 0.0483065 9.67124e-05 0.0485435 8.54467e-07 272.814 
-0.31 -0.13 -1.94295 2.88495 0.0487444 0.048192 6.06222e-05 0.0484691 8.53328e-07 272.759 
-0.25 -0.15 -2.27317 2.5398 0.048787 0.0482759 0.000112952 0.048505 8.53995e-07 272.748 
-0.29 -0.13 -2.2532 2.89491 0.0487756 0.0481607 5.99329e-05 0.0484868 8.54255e-07 272.563 
-0.27 -0.13 -2.53047 2.9372 0.0487703 0.0482556 7.59966e-05 0.0485145 8.53937e-07 272.82 
-0.31 -0.11 -1.91637 3.32454 0.048819 0.0481988 5.62335e-05 0.0485121 8.52841e-07 273.157 
-0.25 -0.13 -2.54831 2.66885 0.0487975 0.0482363 0.000122067 0.0485054 8.53657e-07 272.858 
-0.25 -0.25 -1.89456 1.40773 0.0488914 0.0483482 0.000124518 0.0486392 8.556e-07 272.99 
-0.25 -0.23 -2.08023 1.67072 0.0488175 0.0482673 0.000121 0.0485469 8.5442e-07 272.847 
-0.25 -0.11 -2.50103 2.85858 0.0487645 0.0482106 6.65701e-05 0.0484662 8.52516e-07 273.003 
-0.25 -0.09 -2.72508 2.95568 0.0487122 0.0482308 0.000143102 0.0484648 8.52381e-07 273.038 
-0.25 -0.01 -2.4699 3.37579 0.0485075 0.048128 0.000118323 0.0483143 8.51206e-07 272.566 
-0.23 -0.49 -0.850926 0.0527738 0.0486832 0.0485603 0.000128431 0.048606 8.54823e-07 273.051 
-0.21 -0.49 -0.922447 -0.000247881 0.0486951 0.048512 0.00013543 0.048596 8.53723e-07 273.347 
-0.19 -0.49 -0.982475 -0.00217887 0.0487417 0.0485677 0.000203025 0.048645 8.54824e-07 273.27 
-0.23 -0.47 -0.864521 0.0669184 0.0487471 0.0485435 0.000105221 0.0486645 8.56373e-07 272.885 
-0.17 -0.49 -1.06024 0.0836016 0.0487297 0.0486231 0.000135765 0.0486773 8.55924e-07 273.1 
-0.21 -0.47 -1.0479 0.206917 0.0487526 0.0484965 0.000132111 0.0486178 8.5528e-07 272.972 
-0.15 -0.49 -0.989348 -0.00335977 0.0487031 0.0486228 0.00019292 0.0486433 8.55967e-07 272.896 