ITEM: TIMESTEP
943500
ITEM: NUMBER OF CELLS
2500
ITEM: BOX BOUNDS ss ss pp
-0.5 0.5
-0.5 0.5
-0.5 0.5
ITEM: CELLS xc yc f_U[*] f_V[*] f_Tau[1] f_Tau[2] f_Tau[3] f_Press[*] f_Mrho[*] f_Ttra[*] 
-0.49 -0.49 -0.0910019 0.0101228 0.0486919 0.048598 -6.8733e-05 0.0487229 8.55948e-07 273.348 
-0.47 -0.49 -0.0547891 0.0417789 0.0486464 0.0485831 -1.70528e-05 0.0486237 8.55313e-07 272.994 
-0.45 -0.49 -0.0993255 -0.0367164 0.0486365 0.0485688 2.17698e-05 0.0485905 8.55198e-07 272.845 
-0.49 -0.47 0.0802296 -0.0512023 0.048703 0.0485965 -2.87856e-05 0.0486559 8.55168e-07 273.221 
-0.43 -0.49 -0.140572 0.041094 0.048634 0.0485753 -6.54886e-06 0.0485921 8.54857e-07 272.962 
-0.47 -0.47 0.0529643 0.0576543 0.0487143 0.0485567 -2.7283e-05 0.0486853 8.54978e-07 273.447 
-0.41 -0.49 -0.17989 0.0208772 0.0486681 0.0485279 5.41123e-05 0.0485897 8.55128e-07 272.862 
-0.45 -0.47 0.0476068 0.119366 0.0487118 0.0485569 2.18954e-05 0.0486386 8.55012e-07 273.173 
-0.49 -0.45 -0.0487723 -0.0388033 0.0487507 0.0486038 -2.23352e-05 0.0486712 8.55631e-07 273.159 
-0.39 -0.49 -0.210878 0.0035438 0.0486986 0.0484952 -3.22871e-06 0.0485979 8.54771e-07 273.023 
-0.43 -0.47 0.00124753 -0.0223851 0.0486876 0.0485565 1.82306e-06 0.0486291 8.54804e-07 273.187 
-0.47 -0.45 -0.0965897 0.111086 0.048731 0.0485195 2.46571e-05 0.0486381 8.55241e-07 273.098 
-0.37 -0.49 -0.293815 0.10615 0.0487276 0.0485538 -2.10894e-07 0.0486382 8.5603e-07 272.847 
-0.41 -0.47 -0.245943 0.243949 0.0486802 0.0485224 2.56425e-05 0.0486307 8.55959e-07 272.828 
-0.45 -0.45 -0.180804 0.0536587 0.0487697 0.0485662 -7.56001e-06 0.048674 8.56327e-07 272.953 
-0.49 -0.43 -0.0544348 0.0813056 0.048721 0.0485445 -2.82488e-05 0.0486471 8.56324e-07 272.803 
-0.35 -0.49 -0.375124 0.00694187 0.0487283 0.0485621 6.38627e-05 0.048625 8.55713e-07 272.874 
-0.39 -0.47 -0.483397 0.144593 0.0487089 0.048521 7.41044e-06 0.0486206 8.55214e-07 273.008 
-0.43 -0.45 -0.322965 0.304853 0.048815 0.0485638 1.50794e-05 0.0486688 8.54797e-07 273.412 
-0.47 -0.43 -0.253792 0.194032 0.0487518 0.048539 -2.56432e-05 0.048687 8.56792e-07 272.877 
-0.37 -0.47 -0.488473 0.0981995 0.0486793 0.0484904 6.63125e-06 0.0485673 8.54406e-07 272.967 
-0.41 -0.45 -0.357288 0.331164 0.0487722 0.048524 -4.28852e-06 0.0486527 8.55433e-07 273.119 
-0.45 -0.43 -0.388767 0.323031 0.0487556 0.0486114 -4.25592e-05 0.0486802 8.5653e-07 272.923 
-0.49 -0.41 -0.0672327 0.336097 0.0487446 0.0485102 -1.4039e-05 0.0486145 8.56038e-07 272.711 
-0.35 -0.47 -0.682019 0.0805488 0.0487179 0.0485307 7.20138e-05 0.0486339 8.55389e-07 273.027 
-0.39 -0.45 -0.424196 0.150702 0.0487571 0.0484966 3.05559e-05 0.048625 8.55714e-07 272.874 
-0.43 -0.43 -0.446021 0.311442 0.0487723 0.0484944 7.8458e-06 0.048631 8.55671e-07 272.921 
-0.47 -0.41 -0.327364 0.371456 0.0487806 0.0486205 -6.22877e-05 0.0487302 8.5752e-07 272.888 
-0.37 -0.45 -0.685826 0.295566 0.0487104 0.0485228 3.58239e-05 0.0486095 8.55276e-07 272.926 
-0.41 -0.43 -0.473865 0.265974 0.0488066 0.0485406 8.25907e-06 0.048666 8.56106e-07 272.978 
-0.45 -0.41 -0.365025 0.340456 0.0488012 0.0485253 -2.18835e-05 0.0486801 8.56689e-07 272.871 
-0.49 -0.39 -0.0115568 0.383087 0.0487778 0.0485465 -2.99016e-05 0.0486669 8.564e-07 272.89 
-0.35 -0.45 -0.709114 0.19293 0.0487019 0.0484493 4.27316e-05 0.0485587 8.5518e-07 272.671 
-0.39 -0.43 -0.449624 0.321563 0.0487954 0.0484548 7.48194e-06 0.048618 8.55008e-07 273.059 
-0.43 -0.41 -0.438105 0.395786 0.048773 0.0485468 -2.10738e-05 0.0486706 8.5588e-07 273.076 
-0.47 -0.39 0.0755438 0.372245 0.048785 0.0486271 -6.57058e-05 0.0486893 8.57171e-07 272.77 
-0.37 -0.43 -0.639696 0.380828 0.0488258 0.0485023 6.22551e-05 0.0486383 8.5604e-07 272.844 
-0.41 -0.41 -0.584427 0.240163 0.0487522 0.0484744 2.11333e-05 0.0485954 8.54748e-07 273.016 
-0.45 -0.39 -0.0353683 0.665272 0.048771 0.0484441 -3.45909e-05 0.0486214 8.55538e-07 272.909 
-0.35 -0.43 -0.710123 0.258787 0.0488344 0.0485091 6.87563e-06 0.0486365 8.56516e-07 272.682 
-0.39 -0.41 -0.578345 0.365638 0.048792 0.0484793 1.38855e-05 0.0486034 8.55316e-07 272.879 
-0.43 -0.39 -0.250195 0.428299 0.048815 0.048566 1.88512e-06 0.0486958 8.56573e-07 272.997 
-0.37 -0.41 -0.537429 0.600493 0.0488026 0.0484667 1.34034e-05 0.0486158 8.55608e-07 272.855 
-0.41 -0.39 -0.409528 0.605079 0.0487609 0.0484347 -9.85323e-06 0.0486137 8.55349e-07 272.927 
-0.35 -0.41 -0.948955 0.4578 0.0487618 0.0485224 8.72327e-06 0.0485877 8.55635e-07 272.689 
-0.39 -0.39 -0.667348 0.310481 0.0487701 0.0484821 1.70385e-05 0.0486247 8.56037e-07 272.769 
-0.37 -0.39 -0.736744 0.607737 0.0487812 0.0484639 2.79344e-05 0.0485918 8.54683e-07 273.016 
-0.35 -0.39 -0.657015 0.741243 0.0488146 0.0485129 8.24826e-05 0.0486205 8.55518e-07 272.91 
-0.37 -0.37 -0.773767 0.509331 0.0488262 0.0484766 1.32216e-06 0.0486372 8.54952e-07 273.185 
-0.33 -0.49 -0.559449 0.0626025 0.0486791 0.0485068 7.61877e-05 0.0486038 8.55072e-07 272.959 
-0.33 -0.47 -0.582356 0.264963 0.048682 0.0485197 7.54722e-05 0.0486052 8.54766e-07 273.065 
-0.33 -0.43 -0.722479 0.0200831 0.0487898 0.0485292 2.91925e-05 0.0486225 8.56252e-07 272.688 
-0.49 -0.37 -0.00135719 0.303051 0.0488264 0.0486225 -4.22923e-05 0.0487091 8.5665e-07 273.047 
-0.47 -0.37 -0.0576954 0.478476 0.0488265 0.0485546 -4.21153e-05 0.0486949 8.5657e-07 272.993 
-0.45 -0.37 -0.234615 0.656809 0.0488011 0.0484823 -2.6226e-05 0.0486429 8.54779e-07 273.273 
-0.49 -0.35 0.0235382 0.431763 0.04889 0.0486178 -6.41995e-05 0.0487403 8.5729e-07 273.017 
-0.43 -0.37 -0.415242 0.722016 0.0488019 0.0485124 -2.57243e-05 0.0486578 8.55145e-07 273.239 
-0.47 -0.35 -0.042257 0.608316 0.0488889 0.0485362 -1.08228e-05 0.0487111 8.56213e-07 273.197 
-0.45 -0.35 -0.253126 0.826942 0.0488497 0.0484788 -2.9959e-07 0.0486948 8.55721e-07 273.263 
-0.49 -0.33 -0.0839161 0.436875 0.0488342 0.0485381 -2.89297e-05 0.0487105 8.57309e-07 272.845 
-0.39 -0.37 -0.608497 0.575541 0.0487792 0.0484364 2.31763e-05 0.048584 8.55624e-07 272.672 
-0.43 -0.35 -0.146535 0.571158 0.0488347 0.0484886 -5.11939e-05 0.0486705 8.55916e-07 273.065 
-0.47 -0.33 -0.141267 0.69867 0.0488834 0.0485376 -1.18685e-05 0.0486846 8.56194e-07 273.055 
-0.41 -0.35 -0.390623 0.81601 0.0488167 0.0484346 4.95862e-05 0.0486195 8.55689e-07 272.851 
-0.45 -0.33 -0.100507 0.873707 0.0489059 0.0484811 -3.40725e-05 0.048677 8.56099e-07 273.043 
-0.49 -0.31 -0.0419595 0.568883 0.0487434 0.0484954 -8.8445e-05 0.0485849 8.54777e-07 272.947 
-0.39 -0.35 -0.557943 0.8765 0.0488676 0.0484853 -9.11495e-06 0.0486561 8.55607e-07 273.082 
-0.43 -0.33 -0.317861 0.772846 0.048888 0.0484601 2.88989e-05 0.0486533 8.55358e-07 273.146 
-0.47 -0.31 -0.213955 0.847783 0.0487638 0.0485139 -5.3967e-05 0.0486149 8.54983e-07 273.05 
-0.37 -0.35 -0.877367 0.78765 0.0487698 0.0484257 5.7725e-05 0.0485914 8.55278e-07 272.824 
-0.41 -0.33 -0.513971 0.901814 0.0488673 0.0484611 -5.91935e-06 0.0486687 8.55874e-07 273.067 
-0.45 -0.31 -0.163243 0.745089 0.0488074 0.0484885 -4.31594e-05 0.0486348 8.55503e-07 272.996 
-0.49 -0.29 -0.114395 0.841488 0.0487368 0.0484583 -8.93781e-05 0.0485879 8.55185e-07 272.834 
-0.35 -0.35 -1.05165 0.852449 0.0487697 0.0484083 3.39547e-05 0.0486018 8.5464e-07 273.086 
-0.39 -0.33 -0.666108 1.13619 0.0488122 0.0484188 4.22876e-05 0.0486057 8.55469e-07 272.843 
-0.43 -0.31 -0.287092 1.12894 0.0487869 0.0484183 -3.42213e-05 0.0486101 8.54913e-07 273.045 
-0.47 -0.29 -0.216687 0.811157 0.0487338 0.0484951 -7.81569e-05 0.0486091 8.55202e-07 272.948 
-0.37 -0.33 -0.611337 1.06148 0.0488693 0.0484617 4.58497e-05 0.0486564 8.55396e-07 273.151 
-0.41 -0.31 -0.656958 1.03729 0.0488507 0.0484018 4.08344e-05 0.0486461 8.55932e-07 272.923 
-0.45 -0.29 -0.26366 0.756178 0.0487581 0.0484367 -3.07949e-05 0.0485883 8.54732e-07 272.981 
-0.49 -0.27 -0.159099 0.957789 0.0487957 0.0484264 -7.77075e-05 0.048639 8.55802e-07 272.924 
-0.35 -0.33 -0.731255 0.766506 0.0488619 0.0484278 6.77113e-06 0.0486588 8.55845e-07 273.021 
-0.39 -0.31 -0.587287 1.15492 0.0489056 0.0484682 1.70489e-05 0.048688 8.56139e-07 273.092 
-0.43 -0.29 -0.4065 1.29036 0.048762 0.0484069 -3.12896e-05 0.0485787 8.55129e-07 272.8 
-0.47 -0.27 -0.214894 0.901401 0.0488244 0.0484771 -8.74913e-05 0.0486936 8.56139e-07 273.123 
-0.37 -0.31 -0.697302 1.01491 0.0488855 0.0484293 1.57499e-05 0.0486613 8.5595e-07 273.002 
-0.41 -0.29 -0.289879 1.13645 0.0487963 0.0483515 -5.06287e-05 0.0485805 8.54444e-07 273.029 
-0.45 -0.27 -0.299928 0.961129 0.0488341 0.048404 -6.02737e-05 0.0486234 8.56279e-07 272.684 
-0.35 -0.31 -0.905157 1.12896 0.0488952 0.0484511 7.32821e-05 0.0486854 8.5564e-07 273.236 
-0.39 -0.29 -0.406722 1.34749 0.0488265 0.0484827 5.01189e-06 0.048636 8.54686e-07 273.264 
-0.43 -0.27 -0.495136 1.29689 0.0488375 0.0484115 -6.78046e-06 0.0486131 8.55172e-07 272.979 
-0.37 -0.29 -0.71734 1.06367 0.0488488 0.0484142 2.07053e-05 0.0486665 8.54744e-07 273.417 
-0.41 -0.27 -0.551296 1.26836 0.0488231 0.0483767 -4.64957e-05 0.0485686 8.54859e-07 272.83 
-0.35 -0.29 -1.06681 1.49231 0.0488494 0.0484102 6.23282e-05 0.0486202 8.54958e-07 273.088 
-0.39 -0.27 -0.950606 1.46928 0.0488018 0.0484225 -3.43863e-05 0.0486442 8.55163e-07 273.157 
-0.33 -0.29 -1.04241 1.38064 0.0488921 0.0484234 4.08871e-05 0.0486506 8.55393e-07 273.12 
-0.37 -0.27 -1.06417 1.50396 0.0488438 0.0483668 -1.60641e-06 0.0486317 8.55201e-07 273.075 
-0.35 -0.27 -1.22251 1.53201 0.0488801 0.0484198 2.47061e-05 0.0486319 8.56109e-07 272.786 
-0.33 -0.27 -1.42188 1.45064 0.0488574 0.0483831 7.95157e-05 0.0485892 8.54898e-07 272.933 
-0.41 -0.37 -0.346516 0.714226 0.0488385 0.0484669 7.24326e-06 0.0486504 8.5579e-07 272.992 
-0.35 -0.37 -0.791437 0.962183 0.048816 0.048464 2.63131e-05 0.0486248 8.55567e-07 272.919 
-0.33 -0.37 -0.847706 0.484825 0.0487939 0.0484788 3.62219e-05 0.04862 8.54821e-07 273.131 
-0.33 -0.35 -1.07612 0.786704 0.0488057 0.0484554 8.5451e-05 0.0486503 8.55916e-07 272.951 
-0.33 -0.31 -1.27065 1.18302 0.0488703 0.0483764 5.75343e-05 0.0486188 8.55049e-07 273.051 
-0.35 -0.25 -1.14945 1.64542 0.0487955 0.0483649 2.31662e-05 0.0485849 8.55221e-07 272.805 
-0.31 -0.49 -0.607677 0.0538815 0.0487274 0.0485626 6.95962e-05 0.0486841 8.55829e-07 273.169 
-0.29 -0.49 -0.637456 0.0359381 0.0487124 0.0485242 6.55485e-05 0.0486373 8.54934e-07 273.192 
-0.27 -0.49 -0.836722 -0.0288127 0.048693 0.0484244 0.000135175 0.0485579 8.54958e-07 272.738 
-0.31 -0.47 -0.75153 -0.0293392 0.048692 0.0485638 8.29202e-05 0.0486387 8.5485e-07 273.226 
-0.29 -0.47 -0.700403 0.0390247 0.0486841 0.048442 0.000124988 0.0485892 8.5453e-07 273.05 
-0.27 -0.47 -0.596767 0.131096 0.0487016 0.0484516 8.26966e-05 0.0485521 8.53955e-07 273.026 
-0.31 -0.45 -0.605805 0.262182 0.0488083 0.0485223 6.73708e-05 0.0486504 8.55874e-07 272.965 
-0.29 -0.45 -0.75889 -0.00246563 0.0488011 0.0484655 0.00011041 0.0486335 8.54755e-07 273.228 
-0.27 -0.45 -1.01847 0.348328 0.0487871 0.0484766 0.000116477 0.0486063 8.55016e-07 272.991 
-0.31 -0.43 -0.988824 0.279167 0.0487632 0.0484538 7.80585e-05 0.0486042 8.55916e-07 272.692 
-0.29 -0.43 -1.19891 0.3353 0.0487852 0.0484553 0.0001043 0.0486269 8.55627e-07 272.912 
-0.27 -0.43 -1.18347 0.403738 0.0487997 0.0484745 0.000123557 0.0486254 8.55057e-07 273.085 
-0.31 -0.41 -1.22415 0.460139 0.0487834 0.0484349 9.87782e-05 0.0486091 8.55184e-07 272.953 
-0.25 -0.43 -1.20024 0.304573 0.0487534 0.0484827 0.00013548 0.0486305 8.53849e-07 273.501 
-0.29 -0.41 -1.30401 0.344302 0.0487755 0.0484509 9.58198e-05 0.0486338 8.55647e-07 272.944 
-0.27 -0.41 -1.3702 0.345144 0.0487791 0.0484441 0.000141451 0.0486124 8.55501e-07 272.871 
-0.31 -0.39 -1.11792 0.583828 0.0488248 0.0484146 7.71947e-05 0.0486051 8.54642e-07 273.104 
-0.25 -0.41 -1.41534 0.383454 0.0488056 0.0484971 0.000109385 0.0486469 8.55085e-07 273.197 
-0.29 -0.39 -1.26782 0.285155 0.0488434 0.0483952 0.000102383 0.0486349 8.56245e-07 272.76 
-0.27 -0.39 -1.36845 0.54999 0.0488332 0.0484541 0.000138996 0.0486835 8.56137e-07 273.067 
-0.31 -0.37 -1.10655 0.737313 0.0487515 0.048374 7.80225e-05 0.0485578 8.54535e-07 272.872 
-0.25 -0.39 -1.53973 0.580786 0.0488239 0.0485227 0.000131534 0.0486748 8.55633e-07 273.179 
-0.29 -0.37 -1.30956 0.595916 0.0487616 0.0483721 9.99081e-05 0.0485637 8.55088e-07 272.729 
-0.27 -0.37 -1.56346 0.636225 0.048845 0.048448 6.53093e-05 0.0486624 8.55621e-07 273.113 
-0.31 -0.35 -1.27884 0.799303 0.0488524 0.0484027 4.35531e-05 0.0486389 8.5559e-07 272.991 
-0.29 -0.35 -1.22516 0.828763 0.0488573 0.0483526 5.08458e-05 0.0486304 8.55649e-07 272.924 
-0.27 -0.35 -1.44034 0.804214 0.0488418 0.048436 8.56579e-05 0.0486303 8.55792e-07 272.878 
-0.31 -0.33 -1.068 0.96083 0.0488355 0.0484109 4.47232e-05 0.0486311 8.55621e-07 272.937 
-0.29 -0.33 -1.50491 0.983697 0.0488118 0.0483126 6.27876e-05 0.0485693 8.54866e-07 272.831 
-0.27 -0.33 -1.50144 0.881375 0.048818 0.0484115 0.000122757 0.0486047 8.55584e-07 272.801 
-0.31 -0.31 -1.29346 1.08437 0.0488758 0.0483844 6.77544e-05 0.0486268 8.5483e-07 273.166 
-0.29 -0.31 -1.31878 1.13536 0.0488587 0.0483144 8.24089e-05 0.0486221 8.54953e-07 273.1 
-0.27 -0.31 -1.71138 1.19129 0.048827 0.0483689 9.23447e-05 0.0485985 8.54407e-07 273.142 
-0.31 -0.29 -1.37102 1.23166 0.0488336 0.048322 6.96835e-05 0.0485797 8.53941e-07 273.185 
-0.25 -0.31 -1.82654 1.20716 0.0488191 0.0484193 0.000147163 0.0486359 8.54529e-07 273.313 
-0.29 -0.29 -1.68962 1.36084 0.0488182 0.0483202 7.61916e-05 0.0485705 8.53829e-07 273.169 
-0.27 -0.29 -1.72958 1.29047 0.0488602 0.0483358 0.000114574 0.0485907 8.53973e-07 273.237 
-0.31 -0.27 -1.53583 1.57664 0.0488305 0.0483313 8.69802e-05 0.0486174 8.54871e-07 273.1 
-0.25 -0.29 -1.93418 1.35488 0.0488772 0.0484109 0.000122977 0.0486502 8.55366e-07 273.126 
-0.29 -0.27 -1.5993 1.64066 0.0488164 0.0482874 0.000131114 0.0485542 8.53844e-07 273.073 
-0.27 -0.27 -1.88857 1.53059 0.0487707 0.0483143 8.16144e-05 0.04856 8.53237e-07 273.3 
-0.25 -0.27 -2.08394 1.47738 0.0487759 0.048355 0.000128313 0.0485821 8.5455e-07 273.004 
-0.33 -0.45 -0.707559 0.0527108 0.0488024 0.0485674 4.50983e-05 0.0486408 8.56225e-07 272.799 
-0.33 -0.41 -1.27443 0.241498 0.0488021 0.0484859 6.61093e-05 0.0485839 8.55392e-07 272.746 
-0.33 -0.39 -0.94654 0.403624 0.0487932 0.0484389 2.85899e-05 0.0485929 8.55004e-07 272.92 
-0.33 -0.33 -0.905077 1.001 0.0488362 0.0484177 2.71185e-05 0.0486212 8.54797e-07 273.145 
-0.25 -0.49 -0.825761 0.00802641 0.0486671 0.0485177 0.000114009 0.0486249 8.55688e-07 272.881 
-0.25 -0.47 -0.811656 0.1412 0.0487432 0.0485387 8.56851e-05 0.0486291 8.5568e-07 272.907 
-0.25 -0.45 -1.14689 0.15149 0.0487524 0.048499 8.47824e-05 0.0486342 8.54852e-07 273.2 
-0.25 -0.37 -1.69787 0.682051 0.0488625 0.0485167 0.00011583 0.0486907 8.55674e-07 273.255 
-0.25 -0.35 -1.66111 0.906641 0.0488366 0.0484486 0.000125196 0.0486327 8.55141e-07 273.099 
-0.25 -0.33 -1.65324 1.12498 0.0487772 0.0484443 9.45452e-05 0.0486428 8.55156e-07 273.151 
-0.49 -0.25 0.0208649 1.2252 0.0487736 0.0484476 -0.000123625 0.0486526 8.55304e-07 273.159 
-0.47 -0.25 -0.304876 0.985318 0.048843 0.0484353 -9.43171e-05 0.0486332 8.55502e-07 272.987 
-0.45 -0.25 -0.500015 1.07926 0.0487882 0.0483686 -5.62929e-05 0.0486193 8.5557e-07 272.888 
-0.49 -0.23 -0.000111503 1.20864 0.0487374 0.0484717 -0.000154028 0.0485829 8.5485e-07 272.913 
-0.47 -0.23 -0.099154 1.31992 0.0487326 0.0483476 -0.00013199 0.0485233 8.54267e-07 272.764 
-0.45 -0.23 -0.471282 1.23612 0.0488063 0.048369 -8.71284e-05 0.0486217 8.55005e-07 273.081 
-0.49 -0.21 -0.177019 1.35019 0.0487416 0.0484617 -0.000170802 0.0486112 8.55763e-07 272.78 
-0.43 -0.23 -0.481688 1.33663 0.0488264 0.0484253 -8.10021e-05 0.0486371 8.54957e-07 273.183 
-0.47 -0.21 -0.337454 1.42803 0.048783 0.0483106 -0.000158341 0.048587 8.54913e-07 272.916 
-0.41 -0.23 -0.681309 1.74314 0.0488322 0.0483612 -3.20681e-05 0.0485994 8.548e-07 273.022 
-0.45 -0.21 -0.234698 1.33116 0.0487987 0.0483126 -9.52957e-05 0.0485905 8.54691e-07 273.006 
-0.49 -0.19 -0.0187966 1.47239 0.0488366 0.0484355 -0.000165653 0.0486312 8.55927e-07 272.84 
-0.39 -0.23 -0.707837 1.8245 0.04883 0.0483496 6.28344e-06 0.0486104 8.54437e-07 273.199 
-0.43 -0.21 -0.652103 1.53544 0.0488293 0.0484248 -5.47008e-05 0.0486478 8.55503e-07 273.069 
-0.47 -0.19 -0.0146141 1.4572 0.0488159 0.0482952 -0.000115037 0.0485852 8.5516e-07 272.827 
-0.41 -0.21 -0.73641 1.86564 0.0488155 0.0483028 -3.48076e-05 0.04859 8.54586e-07 273.037 
-0.45 -0.19 -0.368884 1.70954 0.0488172 0.0483088 -9.24169e-05 0.0485804 8.54063e-07 273.15 
-0.49 -0.17 0.103955 1.31238 0.0487971 0.0484259 -0.000158354 0.0486151 8.55752e-07 272.806 
-0.39 -0.21 -0.850639 2.00683 0.0488512 0.0483408 -3.18445e-05 0.0486224 8.55499e-07 272.927 
-0.43 -0.19 -0.687114 1.8484 0.048814 0.0483642 -0.00011863 0.0486223 8.55306e-07 272.988 
-0.47 -0.17 -0.161404 1.96081 0.0487844 0.0482261 -0.000128052 0.0485211 8.53878e-07 272.876 
-0.41 -0.19 -0.863781 1.87275 0.0488435 0.0483144 -5.03756e-05 0.0485742 8.54605e-07 272.942 
-0.45 -0.17 -0.347132 1.86603 0.0488143 0.0483151 -0.000153769 0.0485925 8.54477e-07 273.086 
-0.49 -0.15 -0.0230103 1.34691 0.0486965 0.0483133 -0.000154417 0.0485153 8.53758e-07 272.882 
-0.39 -0.19 -1.00705 2.10335 0.0488199 0.0482896 -4.67823e-05 0.0485612 8.54316e-07 272.961 
-0.43 -0.17 -0.554793 2.05498 0.048802 0.04831 -9.06775e-05 0.0486111 8.54907e-07 273.053 
-0.47 -0.15 0.154152 1.92256 0.0487357 0.0482586 -0.000146204 0.0484735 8.53831e-07 272.623 
-0.41 -0.17 -0.681842 2.02821 0.0487635 0.0482896 -5.18832e-05 0.0485471 8.53171e-07 273.248 
-0.45 -0.15 -0.158316 2.19878 0.048751 0.0483146 -0.000141765 0.0485427 8.53698e-07 273.055 
-0.39 -0.17 -0.877061 2.23616 0.0487658 0.0482497 -3.94169e-05 0.0485075 8.53128e-07 273.039 
-0.43 -0.15 -0.322965 2.14555 0.0487382 0.0482016 -5.87079e-05 0.0485054 8.53842e-07 272.799 
-0.41 -0.15 -0.554952 2.26481 0.0487728 0.0482835 -5.75893e-05 0.048549 8.53804e-07 273.056 
-0.39 -0.15 -0.853327 2.69592 0.0487773 0.0482789 -5.54175e-05 0.0485307 8.54387e-07 272.767 
-0.43 -0.25 -0.407914 1.36479 0.0488089 0.0484507 -2.83511e-05 0.0486182 8.55548e-07 272.888 
-0.41 -0.25 -0.494432 1.53592 0.0488472 0.048352 -4.58233e-05 0.048625 8.55524e-07 272.934 
-0.39 -0.25 -0.814965 1.75911 0.0488608 0.0484285 -2.49207e-05 0.0486446 8.55803e-07 272.955 
-0.33 -0.25 -1.31056 1.71576 0.0487963 0.0483335 7.18693e-05 0.0485867 8.54913e-07 272.914 
-0.37 -0.25 -1.08865 1.52092 0.0487959 0.0483381 -3.39746e-06 0.048588 8.55215e-07 272.825 
-0.37 -0.23 -0.90924 1.94034 0.0488641 0.0483925 1.7876e-05 0.0486685 8.56006e-07 273.025 
-0.35 -0.23 -1.14746 1.85386 0.0488179 0.0482964 1.49739e-05 0.0485897 8.5526e-07 272.82 
-0.37 -0.21 -0.939123 2.04023 0.048837 0.0483192 1.17503e-05 0.0486133 8.5493e-07 273.058 
-0.35 -0.21 -1.03711 2.00112 0.0488665 0.048321 2.25265e-05 0.0485955 8.54684e-07 273.036 
-0.33 -0.21 -1.20158 2.1535 0.0488742 0.0482845 3.84928e-05 0.0485992 8.55428e-07 272.82 
-0.37 -0.19 -1.14029 2.12781 0.0488618 0.0483231 2.41583e-06 0.0485942 8.55405e-07 272.799 
-0.35 -0.19 -1.2065 2.09587 0.0488538 0.0482952 2.89453e-05 0.04856 8.55282e-07 272.646 
-0.33 -0.19 -1.28556 2.36231 0.0488284 0.0482186 6.68785e-05 0.0485543 8.54905e-07 272.734 
-0.37 -0.17 -1.00695 2.33513 0.0488003 0.0482659 -4.0018e-05 0.0485535 8.53552e-07 273.162 
-0.35 -0.17 -1.3864 2.41712 0.0488193 0.0482436 4.03843e-05 0.0485475 8.54298e-07 272.89 
-0.33 -0.17 -1.63553 2.46178 0.0488501 0.0482354 5.60946e-05 0.0485498 8.54595e-07 272.808 
-0.37 -0.15 -1.28099 2.48513 0.0487782 0.0482245 -1.60599e-05 0.048467 8.52507e-07 273.01 
-0.35 -0.15 -1.32847 2.54224 0.04875 0.0481863 -4.34163e-06 0.0484785 8.53901e-07 272.629 
-0.33 -0.15 -1.53922 2.5896 0.0487696 0.0482348 1.28762e-05 0.0485096 8.54632e-07 272.57 
-0.37 -0.13 -1.20214 2.60568 0.0487627 0.0481909 5.05704e-06 0.0484864 8.53243e-07 272.884 
-0.35 -0.13 -1.51629 2.94113 0.0487356 0.048174 3.31693e-06 0.0484534 8.5361e-07 272.581 
-0.33 -0.13 -1.75154 2.69744 0.0487402 0.0482141 5.13434e-05 0.0484464 8.53578e-07 272.552 
-0.37 -0.11 -1.08124 3.04962 0.0487868 0.0481685 -7.58449e-06 0.0484832 8.52596e-07 273.073 
-0.35 -0.11 -1.55373 3.003 0.0487664 0.048196 2.83121e-05 0.0484767 8.53336e-07 272.799 
-0.33 -0.11 -1.7159 2.99481 0.0487639 0.048146 5.44489e-06 0.0484246 8.52966e-07 272.625 
-0.35 -0.09 -1.35734 3.42016 0.0487618 0.0482172 2.54536e-05 0.0484966 8.52786e-07 273.087 
-0.49 -0.13 -0.107162 1.46538 0.0486755 0.0482616 -0.000182359 0.0484808 8.53558e-07 272.752 
-0.47 -0.13 -0.155204 1.95566 0.0487043 0.0482527 -0.000171413 0.0484646 8.53272e-07 272.751 
-0.45 -0.13 -0.104062 2.39597 0.0487174 0.04827 -0.000147294 0.0484779 8.53204e-07 272.848 
-0.49 -0.11 0.00335585 1.54993 0.0487248 0.0482619 -0.000216943 0.0484797 8.52517e-07 273.078 
-0.43 -0.13 -0.410944 2.42216 0.0487412 0.0481423 -0.000122077 0.0484721 8.52834e-07 272.934 
-0.47 -0.11 -0.300272 2.14444 0.0487004 0.0482403 -0.000178126 0.0484875 8.52974e-07 272.976 
-0.41 -0.13 -0.929505 2.49157 0.0488018 0.0482706 -8.83943e-05 0.0485446 8.53512e-07 273.125 
-0.45 -0.11 -0.441029 2.33363 0.0487439 0.0482172 -0.000158571 0.0484957 8.52512e-07 273.17 
-0.49 -0.09 -0.278801 1.8165 0.0485585 0.048225 -0.000222794 0.0483948 8.5207e-07 272.743 
-0.39 -0.13 -1.03494 2.90276 0.0487991 0.048257 -3.02251e-05 0.0485632 8.53999e-07 273.074 
-0.43 -0.11 -0.462545 2.82668 0.0487503 0.0481512 -0.000136411 0.0484641 8.52285e-07 273.065 
-0.47 -0.09 -0.425701 2.39773 0.0486399 0.0482483 -0.000226865 0.0484615 8.52772e-07 272.894 
-0.41 -0.11 -0.468382 2.79134 0.0487371 0.0482132 -9.84498e-05 0.0484885 8.53131e-07 272.931 
-0.45 -0.09 -0.584863 2.46411 0.0486404 0.0481679 -0.000177349 0.0483773 8.51803e-07 272.73 
-0.39 -0.11 -0.94011 3.01132 0.048739 0.048173 -5.18524e-05 0.0485207 8.52785e-07 273.223 
-0.43 -0.09 -0.739441 2.80639 0.0486417 0.0480983 -0.000155065 0.048416 8.52041e-07 272.872 
-0.41 -0.09 -0.921116 2.99802 0.0487025 0.0481535 -0.000136008 0.048458 8.52729e-07 272.888 
-0.39 -0.09 -0.86794 3.15762 0.0487341 0.0481529 -4.37318e-05 0.0484601 8.529e-07 272.845 
-0.37 -0.09 -1.20449 3.27571 0.0486936 0.0481012 -4.41598e-06 0.0484063 8.51343e-07 273.041 
-0.35 -0.03 -1.80195 3.91316 0.048614 0.0481043 -3.52828e-05 0.0483378 8.5086e-07 272.809 
-0.37 -0.07 -1.23847 3.54647 0.0486896 0.0480917 -4.30914e-05 0.0484201 8.52154e-07 272.859 
-0.41 -0.05 -0.960213 3.35631 0.0486385 0.0480371 -0.000113724 0.0483531 8.51365e-07 272.733 
-0.45 -0.03 -0.578874 3.31592 0.0485566 0.0480025 -0.000249219 0.0483165 8.50577e-07 272.78 
-0.35 -0.07 -1.53548 3.69551 0.0487214 0.0481451 -1.13607e-05 0.0484379 8.52343e-07 272.898 
-0.39 -0.05 -1.24843 3.47461 0.0486352 0.0480864 -9.97699e-05 0.0483373 8.50867e-07 272.805 
-0.43 -0.03 -0.696545 3.71154 0.0485516 0.0480681 -0.000197995 0.0483169 8.50468e-07 272.817 
-0.33 -0.07 -1.7446 3.5942 0.0487924 0.0481379 2.61731e-05 0.0484564 8.52325e-07 273.009 
-0.37 -0.05 -1.51203 3.86812 0.0486316 0.0480517 -0.000106193 0.0483318 8.50116e-07 273.014 
-0.41 -0.03 -0.888584 3.63411 0.0486179 0.0480351 -0.000126573 0.048303 8.50351e-07 272.776 
-0.35 -0.05 -1.59998 3.65198 0.0485765 0.0480997 -5.00564e-05 0.0483344 8.50751e-07 272.825 
-0.39 -0.03 -1.28783 3.90621 0.0486295 0.0480794 -0.00010542 0.0483448 8.49717e-07 273.215 
-0.33 -0.05 -1.83487 3.91997 0.0485769 0.0480544 2.84299e-06 0.0483263 8.5138e-07 272.577 
-0.37 -0.03 -1.64033 3.93427 0.0486332 0.0479626 -3.22154e-05 0.0482625 8.49875e-07 272.7 
-0.33 -0.03 -2.00126 4.20815 0.0486082 0.0479974 1.55187e-05 0.0483344 8.502e-07 273.002 
-0.49 -0.07 0.0584626 2.09457 0.0485946 0.0482251 -0.000240283 0.0484167 8.51667e-07 272.995 
-0.47 -0.07 -0.0916945 2.41005 0.0485929 0.0482086 -0.000228247 0.0484524 8.52372e-07 272.971 
-0.45 -0.07 -0.285826 2.7739 0.0486404 0.0481127 -0.00018669 0.0483729 8.51101e-07 272.93 
-0.49 -0.05 -0.0369264 2.13149 0.0484748 0.0481838 -0.000307206 0.0482988 8.49781e-07 272.935 
-0.43 -0.07 -0.712304 3.15608 0.048602 0.0481532 -0.000151319 0.0484143 8.51402e-07 273.067 
-0.47 -0.05 -0.228339 2.67472 0.04855 0.0482045 -0.000290755 0.0483787 8.51462e-07 272.847 
-0.41 -0.07 -0.922505 3.15745 0.0485532 0.0480855 -0.000118271 0.048316 8.50504e-07 272.8 
-0.45 -0.05 -0.408646 2.99808 0.0485617 0.0480141 -0.000198043 0.0482979 8.49742e-07 272.943 
-0.49 -0.03 -0.0558922 2.29774 0.0485343 0.0481365 -0.000328098 0.0483255 8.50353e-07 272.902 
-0.39 -0.07 -1.10557 3.21295 0.0485839 0.0480574 -0.000102578 0.0483458 8.51664e-07 272.597 
-0.43 -0.05 -0.62674 3.47296 0.0486637 0.0481526 -0.000139799 0.0484434 8.52137e-07 272.996 
-0.47 -0.03 -0.216317 2.81456 0.0485614 0.0481311 -0.000267489 0.0483373 8.51093e-07 272.732 
-0.27 -0.07 -2.51058 3.55898 0.0486566 0.0481539 0.000103486 0.0484153 8.52197e-07 272.818 
-0.31 -0.05 -2.15291 4.00152 0.0486267 0.0480566 7.49339e-05 0.048371 8.51466e-07 272.802 
-0.27 -0.09 -2.55879 3.36058 0.0487376 0.0481715 9.58238e-05 0.0484513 8.53308e-07 272.666 
-0.31 -0.07 -2.11127 3.54416 0.0487699 0.0481082 6.16285e-05 0.0484502 8.52904e-07 272.788 
-0.29 -0.07 -2.48843 3.71234 0.0486968 0.0481292 0.000134566 0.0484123 8.51832e-07 272.918 
-0.25 -0.07 -2.53424 2.94309 0.0486902 0.0481919 9.8919e-05 0.0484287 8.52015e-07 272.952 
-0.29 -0.05 -2.2685 3.68254 0.0486867 0.0481269 0.000110568 0.0483938 8.51644e-07 272.874 
-0.27 -0.05 -2.38687 3.57033 0.0486769 0.0481577 8.86545e-05 0.0483944 8.51141e-07 273.039 
-0.31 -0.03 -2.25143 4.14721 0.0485879 0.048041 1.02438e-05 0.0482918 8.49852e-07 272.873 
-0.25 -0.05 -2.46772 3.13005 0.0487048 0.0481837 0.000105383 0.0484467 8.51926e-07 273.082 
-0.29 -0.03 -2.28996 3.84648 0.0485873 0.0480563 4.13332e-05 0.0483218 8.50179e-07 272.937 
-0.27 -0.03 -2.47891 3.61697 0.0486467 0.0481778 8.58667e-05 0.0484304 8.52784e-07 272.715 
-0.25 -0.03 -2.34208 3.1061 0.0486438 0.0481735 9.48395e-05 0.0484143 8.52195e-07 272.813 
-0.27 -0.01 -2.05599 3.73281 0.0485096 0.0481269 7.03068e-05 0.0483757 8.51599e-07 272.786 
-0.31 -0.25 -1.58367 1.79438 0.0488606 0.0483024 0.000113204 0.048588 8.5477e-07 272.967 
-0.29 -0.25 -1.88176 1.71272 0.0489105 0.0483083 0.000115904 0.0485932 8.54405e-07 273.113 
-0.27 -0.25 -1.8501 1.66765 0.0489124 0.0483184 9.94562e-05 0.0486282 8.54874e-07 273.16 
-0.29 -0.11 -2.17979 2.90872 0.0487994 0.0481697 5.67407e-05 0.0485027 8.54275e-07 272.645 
-0.33 -0.09 -1.74595 3.25235 0.0487409 0.0481429 3.80173e-05 0.0484116 8.52669e-07 272.646 
-0.27 -0.11 -2.35729 3.18217 0.0487704 0.0481851 8.996e-05 0.0484628 8.53426e-07 272.692 
-0.31 -0.09 -1.96203 3.39138 0.0486914 0.0481416 4.3388e-05 0.0484171 8.51631e-07 273.009 
-0.29 -0.09 -2.17785 3.41099 0.0487157 0.0481425 6.08696e-05 0.0484307 8.52712e-07 272.74 
-0.33 -0.23 -1.39709 1.76409 0.0488422 0.0483108 8.32636e-05 0.0486255 8.55634e-07 272.902 
-0.31 -0.23 -1.49646 2.02739 0.0488435 0.0482813 3.77599e-05 0.0485817 8.54945e-07 272.876 
-0.29 -0.23 -1.49743 1.84691 0.0488299 0.0483319 8.68452e-05 0.0486088 8.55191e-07 272.949 
-0.27 -0.23 -1.81502 1.66795 0.0488308 0.0483044 8.60339e-05 0.0485681 8.54451e-07 272.957 
-0.31 -0.21 -1.54947 2.17205 0.0488432 0.0482409 6.9659e-05 0.0485831 8.55382e-07 272.744 
-0.29 -0.21 -1.84324 1.93404 0.0488798 0.0483254 7.30196e-05 0.04863 8.55771e-07 272.883 
-0.27 -0.21 -1.78262 1.95804 0.0488786 0.0483232 0.000138102 0.048612 8.55364e-07 272.912 
-0.31 -0.19 -1.46514 2.32082 0.0488553 0.048281 4.48942e-05 0.0485682 8.54747e-07 272.863 
-0.25 -0.21 -2.02215 1.76043 0.0488507 0.0482218 0.000110697 0.04857 8.54773e-07 272.865 
-0.29 -0.19 -1.66046 2.25977 0.0488261 0.0482634 9.80117e-05 0.0485331 8.54982e-07 272.591 
-0.27 -0.19 -1.94088 1.99929 0.0488094 0.0482776 0.000143375 0.0485402 8.53656e-07 273.054 
-0.31 -0.17 -1.56324 2.24211 0.0488052 0.0482627 3.66167e-05 0.0485418 8.54556e-07 272.775 
-0.25 -0.19 -2.09532 2.1317 0.0488332 0.0482507 0.000128036 0.0485375 8.54083e-07 272.903 
-0.29 -0.17 -1.65601 2.50371 0.0488292 0.0482393 9.41307e-05 0.0485456 8.53928e-07 272.997 
-0.27 -0.17 -2.08902 2.52977 0.048813 0.0482636 0.000127515 0.0485687 8.54643e-07 272.899 
-0.31 -0.15 -1.76106 2.59132 0.0487746 0.0482115 6.87551e-05 0.0484973 8.54024e-07 272.695 
-0.25 -0.17 -2.54883 2.24924 0.0488568 0.0482621 0.000117503 0.0485345 8.53612e-07 273.036 
-0.29 -0.15 -2.02706 2.66698 0.0487575 0.0481698 0.000120844 0.0484728 8.53571e-07 272.702 
-0.27 -0.15 -2.19569 2.8428 0.0487801 0.0483154 9.81277e-05 0.0485456 8.54452e-07 272.83 
-0.31 -0.13 -2.05566 2.90382 0.0487293 0.0481816 6.09366e-05 0.0484545 8.53052e-07 272.765 
-0.25 -0.15 -2.35416 2.4733 0.0487916 0.0482737 0.00011542 0.0485093 8.54098e-07 272.739 
-0.29 -0.13 -2.28976 2.8241 0.0487748 0.0481544 5.22609e-05 0.0484831 8.54226e-07 272.551 
-0.27 -0.13 -2.55338 2.9777 0.0487871 0.0482646 7.87988e-05 0.0485277 8.54291e-07 272.781 
-0.31 -0.11 -1.97256 3.32106 0.0488325 0.0482026 4.96646e-05 0.0485163 8.52952e-07 273.145 
-0.25 -0.13 -2.61002 2.64963 0.0488046 0.048233 0.000136512 0.0484972 8.53588e-07 272.834 
-0.25 -0.25 -1.84355 1.46963 0.0489031 0.0483593 0.000123265 0.048652 8.55544e-07 273.079 
-0.25 -0.23 -2.02933 1.74173 0.0488276 0.0482706 0.000115737 0.0485617 8.5461e-07 272.87 
-0.25 -0.11 -2.54701 2.81087 0.0487753 0.0482061 7.52936e-05 0.0484599 8.5238e-07 273.011 
-0.25 -0.09 -2.77681 2.91849 0.0487092 0.0482234 0.000140825 0.0484573 8.52232e-07 273.043 
-0.25 -0.01 -2.44462 3.31738 0.0485128 0.0481337 0.000119104 0.04832 8.51299e-07 272.568 
-0.23 -0.49 -0.892468 0.0544483 0.04869 0.0485651 0.00013302 0.048606 8.5487e-07 273.036 
-0.21 -0.49 -0.947551 -0.0048321 0.0487081 0.0485042 0.000131079 0.048594 8.53406e-07 273.437 
-0.19 -0.49 -0.998794 0.0139777 0.0487528 0.0485591 0.000200782 0.0486479 8.54771e-07 273.303 
-0.23 -0.47 -0.88265 0.0795967 0.0487536 0.0485448 9.83589e-05 0.0486634 8.56258e-07 272.915 
-0.17 -0.49 -1.06396 0.0788976 0.0487467 0.0486326 0.00013149 0.0486934 8.56116e-07 273.129 
-0.21 -0.47 -1.08715 0.177697 0.0487634 0.0484936 0.000134756 0.0486208 8.55205e-07 273.012 
-0.15 -0.49 -0.989315 -0.0194647 0.0487203 0.0486095 0.000191841 0.0486455 8.56142e-07 272.852 