ITEM: TIMESTEP
892000
ITEM: NUMBER OF CELLS
2500
ITEM: BOX BOUNDS ss ss pp
-0.5 0.5
-0.5 0.5
-0.5 0.5
ITEM: CELLS xc yc f_U[*] f_V[*] f_Tau[1] f_Tau[2] f_Tau[3] f_Press[*] f_Mrho[*] f_Ttra[*] 
-0.49 -0.49 -0.152659 0.118593 0.0486794 0.0485556 -5.15264e-05 0.0486878 8.55505e-07 273.292 
-0.47 -0.49 -0.15671 -0.025984 0.0486167 0.0485708 -4.6178e-06 0.0486105 8.55093e-07 272.99 
-0.45 -0.49 -0.0479578 -0.0637354 0.0485946 0.0485522 4.7884e-06 0.0485512 8.54694e-07 272.784 
-0.49 -0.47 0.195318 0.0334761 0.0486364 0.0485517 6.89518e-07 0.0485664 8.53678e-07 273.195 
-0.43 -0.49 -0.0641725 -0.0366348 0.0485465 0.0485533 -4.30737e-06 0.0485412 8.54047e-07 272.935 
-0.47 -0.47 0.0799878 0.0344583 0.0486581 0.0485567 -4.01732e-06 0.0486412 8.54104e-07 273.479 
-0.41 -0.49 -0.0149472 -0.0370127 0.0486056 0.0485248 4.15942e-05 0.0485495 8.54512e-07 272.833 
-0.45 -0.47 -0.0294147 0.100447 0.0486502 0.0485527 5.28979e-05 0.0485792 8.53963e-07 273.175 
-0.49 -0.45 -0.0828056 -0.0850068 0.0487248 0.0485628 -5.85015e-06 0.0486506 8.54796e-07 273.31 
-0.39 -0.49 0.0746858 -0.0498706 0.0486217 0.048413 -5.71061e-06 0.0485115 8.53944e-07 272.801 
-0.43 -0.47 -0.0918874 -0.115978 0.04865 0.0485449 3.94442e-06 0.0486367 8.54835e-07 273.219 
-0.47 -0.45 -0.0568171 0.190505 0.0487014 0.0485003 4.91801e-05 0.0486091 8.54122e-07 273.293 
-0.37 -0.49 -0.0829993 0.222867 0.0486813 0.0484964 9.27172e-06 0.0485746 8.5498e-07 272.825 
-0.41 -0.47 -0.159802 0.131128 0.0486138 0.048489 8.95239e-06 0.0485571 8.55437e-07 272.581 
-0.45 -0.45 -0.254124 0.149757 0.048773 0.0486003 -6.69727e-06 0.0486691 8.56016e-07 273.024 
-0.49 -0.43 -0.0691995 0.113773 0.048702 0.0485346 1.04647e-06 0.0486656 8.56592e-07 272.821 
-0.35 -0.49 -0.230236 -0.00580368 0.0487197 0.0485473 0.000125177 0.0485689 8.54937e-07 272.806 
-0.39 -0.47 -0.551244 0.168062 0.0486557 0.0484383 1.58518e-05 0.0485445 8.54287e-07 272.877 
-0.43 -0.45 -0.250572 0.0720991 0.04882 0.0485571 -1.76587e-06 0.0486482 8.54305e-07 273.454 
-0.47 -0.43 -0.196057 0.171867 0.0487555 0.0485414 -3.30949e-05 0.048695 8.56959e-07 272.869 
-0.37 -0.47 -0.478553 0.142621 0.0486403 0.0484135 -1.52046e-05 0.0484979 8.53423e-07 272.891 
-0.41 -0.45 -0.365223 0.253653 0.0487662 0.0485067 2.67491e-05 0.0486449 8.54974e-07 273.221 
-0.45 -0.43 -0.318234 0.423295 0.0487534 0.048666 -5.90605e-05 0.0486917 8.56226e-07 273.084 
-0.49 -0.41 -0.0156929 0.270656 0.0488086 0.0484576 -2.78069e-05 0.0486196 8.55855e-07 272.798 
-0.35 -0.47 -0.654918 0.214732 0.0486959 0.0485155 8.57938e-05 0.0485836 8.54381e-07 273.067 
-0.39 -0.45 -0.449091 0.32769 0.0487619 0.0484131 -4.19889e-06 0.0485926 8.54853e-07 272.966 
-0.43 -0.43 -0.395712 -0.001033 0.0487509 0.0484827 2.1215e-05 0.048627 8.5512e-07 273.075 
-0.47 -0.41 -0.298855 0.339523 0.0488255 0.0486498 -4.07094e-05 0.0487474 8.57228e-07 273.077 
-0.37 -0.45 -0.700513 0.208194 0.0486902 0.048472 3.79041e-05 0.0485506 8.55009e-07 272.681 
-0.41 -0.43 -0.547408 0.428637 0.0488137 0.0485541 -5.8932e-06 0.0486605 8.55617e-07 273.103 
-0.45 -0.41 -0.129035 0.23126 0.0488162 0.0485573 1.50975e-06 0.0486971 8.56402e-07 273.058 
-0.49 -0.39 0.0261186 0.276387 0.048755 0.0484905 -4.4721e-05 0.0486125 8.56159e-07 272.662 
-0.35 -0.45 -0.66046 0.322681 0.048688 0.0484313 2.2268e-05 0.0485402 8.54943e-07 272.643 
-0.39 -0.43 -0.603528 0.396375 0.0487837 0.0483629 1.79309e-05 0.0485519 8.53969e-07 273.02 
-0.43 -0.41 -0.30232 0.287724 0.0487567 0.0485485 -2.73629e-05 0.0486613 8.55046e-07 273.29 
-0.47 -0.39 0.116728 0.233166 0.0487927 0.0486253 -5.61394e-05 0.0486928 8.57218e-07 272.775 
-0.37 -0.43 -0.747695 0.285751 0.0488267 0.048447 4.35596e-05 0.0486097 8.5567e-07 272.802 
-0.41 -0.41 -0.588676 0.504344 0.0487576 0.0484898 1.85426e-05 0.0486048 8.54218e-07 273.238 
-0.45 -0.39 0.0705496 0.60342 0.0487782 0.0484488 8.11335e-06 0.0486334 8.54822e-07 273.205 
-0.35 -0.43 -0.949626 0.369147 0.0488438 0.0484904 1.26165e-05 0.0486291 8.56055e-07 272.788 
-0.39 -0.41 -0.63021 0.414085 0.0487718 0.0484048 1.63842e-05 0.0485889 8.54663e-07 273.006 
-0.43 -0.39 -0.300073 0.541655 0.0488405 0.0486182 -2.65194e-06 0.0487433 8.56411e-07 273.314 
-0.37 -0.41 -0.647827 0.587679 0.0487588 0.0484323 2.72877e-06 0.0485798 8.54534e-07 272.996 
-0.41 -0.39 -0.514596 0.733077 0.0487701 0.04845 3.43146e-06 0.0486087 8.54862e-07 273.054 
-0.35 -0.41 -1.03793 0.586009 0.0487132 0.0484641 2.16133e-06 0.0485243 8.546e-07 272.664 
-0.39 -0.39 -0.643696 0.370752 0.0487603 0.0484046 1.99704e-05 0.0485753 8.55264e-07 272.738 
-0.37 -0.39 -0.74827 0.600611 0.0487952 0.0484364 3.63981e-05 0.0485812 8.54491e-07 273.018 
-0.35 -0.39 -0.704072 0.870083 0.048847 0.048474 8.24003e-05 0.048597 8.5517e-07 272.889 
-0.37 -0.37 -0.843048 0.56345 0.0487894 0.0484401 -2.29516e-05 0.0485976 8.53981e-07 273.273 
-0.33 -0.49 -0.560545 0.173322 0.0486961 0.0484883 9.16117e-05 0.0485558 8.55118e-07 272.675 
-0.33 -0.47 -0.504797 0.422877 0.0486624 0.0484916 7.38839e-05 0.0485764 8.54182e-07 273.09 
-0.33 -0.43 -0.880512 0.141099 0.0487774 0.0484765 3.46155e-05 0.048618 8.56233e-07 272.669 
-0.49 -0.37 -0.0802548 0.171272 0.0487889 0.0485748 -7.53801e-05 0.0486937 8.56691e-07 272.947 
-0.47 -0.37 -0.0222953 0.352627 0.0487925 0.0485034 -4.36477e-05 0.0486608 8.57015e-07 272.66 
-0.45 -0.37 -0.323966 0.590378 0.0488048 0.0485313 -1.72248e-05 0.0486397 8.54868e-07 273.226 
-0.49 -0.35 0.000773213 0.394262 0.0488411 0.0485923 -3.03498e-05 0.0486793 8.57011e-07 272.765 
-0.43 -0.37 -0.306255 0.770474 0.0488002 0.0485428 -3.10055e-06 0.0486526 8.54753e-07 273.335 
-0.47 -0.35 -0.119182 0.466045 0.0488351 0.0484663 -3.92379e-05 0.0486595 8.55934e-07 272.997 
-0.45 -0.35 -0.231337 0.646296 0.0488337 0.04853 -1.36884e-05 0.0487216 8.55882e-07 273.362 
-0.49 -0.33 -0.0854664 0.480589 0.0488831 0.0485547 -2.46353e-05 0.0487212 8.57314e-07 272.903 
-0.39 -0.37 -0.540135 0.741002 0.0487874 0.0484289 3.93772e-05 0.0485527 8.54486e-07 272.859 
-0.43 -0.35 -0.222918 0.619127 0.0488271 0.0485007 -4.0433e-05 0.0486765 8.56467e-07 272.922 
-0.47 -0.33 -0.230757 0.527868 0.0489198 0.0484937 -1.03886e-05 0.0486956 8.56418e-07 273.045 
-0.41 -0.35 -0.446932 0.840592 0.0488071 0.04841 5.27268e-05 0.0486112 8.55471e-07 272.873 
-0.45 -0.33 -0.309485 0.788389 0.0488831 0.0485184 -4.4039e-05 0.0487071 8.5616e-07 273.192 
-0.49 -0.31 -0.0566123 0.584817 0.0487296 0.0484676 -6.74251e-05 0.0485801 8.54491e-07 273.012 
-0.39 -0.35 -0.574679 1.10484 0.0488783 0.0484612 9.41951e-06 0.0486349 8.55305e-07 273.059 
-0.43 -0.33 -0.466229 0.790188 0.0488538 0.0484464 2.94725e-05 0.048665 8.54935e-07 273.347 
-0.47 -0.31 -0.203898 0.842188 0.0487353 0.0484885 -2.5644e-05 0.0485996 8.54572e-07 273.095 
-0.37 -0.35 -0.878537 0.925806 0.048802 0.0483957 0.000101827 0.0485909 8.55756e-07 272.669 
-0.41 -0.33 -0.604667 0.893986 0.0488527 0.0484522 -1.94065e-05 0.0486464 8.55623e-07 273.022 
-0.45 -0.31 -0.319515 0.752324 0.0487985 0.0485443 -4.86049e-05 0.0486646 8.55476e-07 273.172 
-0.49 -0.29 -0.0792321 0.79079 0.0487038 0.0484197 -8.48424e-05 0.0485962 8.547e-07 273.035 
-0.35 -0.35 -1.15924 0.872001 0.0487865 0.0483322 3.83555e-05 0.0485619 8.5396e-07 273.079 
-0.39 -0.33 -0.83792 1.3029 0.0487988 0.0484012 3.05592e-05 0.0485565 8.55461e-07 272.569 
-0.43 -0.31 -0.598812 0.990288 0.0488214 0.0484098 -5.28627e-05 0.0486454 8.54841e-07 273.267 
-0.47 -0.29 -0.197376 0.855973 0.048716 0.0485022 -8.15404e-05 0.0486152 8.54918e-07 273.073 
-0.37 -0.33 -0.659523 1.16736 0.0488865 0.0484602 6.81762e-05 0.0486454 8.56056e-07 272.879 
-0.41 -0.31 -0.791768 1.04873 0.0488899 0.0483805 2.58364e-05 0.0486631 8.56049e-07 272.981 
-0.45 -0.29 -0.138198 0.873156 0.0487714 0.0485233 -4.47044e-05 0.0486505 8.54994e-07 273.247 
-0.49 -0.27 -0.104794 0.929746 0.0487827 0.0484084 -8.91735e-05 0.048624 8.54962e-07 273.108 
-0.35 -0.33 -0.753141 0.959958 0.0488746 0.0483231 3.93448e-05 0.048615 8.5514e-07 273.001 
-0.39 -0.31 -0.714868 1.25248 0.0489012 0.0484224 3.35332e-05 0.0486687 8.55333e-07 273.24 
-0.43 -0.29 -0.324182 1.25228 0.048736 0.0483636 -4.71449e-05 0.048582 8.5494e-07 272.879 
-0.47 -0.27 -0.243843 0.880648 0.048859 0.0484905 -0.000110775 0.0487273 8.55998e-07 273.357 
-0.37 -0.31 -0.608159 0.95787 0.0488813 0.048388 4.77666e-05 0.048629 8.55877e-07 272.844 
-0.41 -0.29 -0.525137 1.08773 0.0487474 0.048324 -3.40909e-05 0.0485631 8.54601e-07 272.881 
-0.45 -0.27 -0.271954 0.975644 0.0488397 0.0484463 -3.9094e-05 0.0486519 8.5627e-07 272.847 
-0.35 -0.31 -0.783563 1.2773 0.0488783 0.0483819 7.19731e-05 0.0486562 8.55249e-07 273.197 
-0.39 -0.29 -0.410256 1.27847 0.0488002 0.048431 8.20027e-06 0.0485956 8.53641e-07 273.37 
-0.43 -0.27 -0.438387 1.41568 0.0487958 0.0484003 5.03242e-06 0.0485911 8.54543e-07 273.057 
-0.37 -0.29 -0.783565 0.939558 0.0487956 0.0483778 2.85719e-05 0.0486285 8.53999e-07 273.441 
-0.41 -0.27 -0.438219 1.23852 0.0487666 0.0483492 -5.63891e-05 0.0485414 8.54453e-07 272.806 
-0.35 -0.29 -1.00806 1.55191 0.0488186 0.0483397 7.91229e-05 0.0485651 8.53906e-07 273.114 
-0.39 -0.27 -0.965329 1.32518 0.0487212 0.0483566 -3.35786e-05 0.0485883 8.54917e-07 272.922 
-0.33 -0.29 -0.892326 1.34481 0.0488887 0.0484077 5.66916e-05 0.0486424 8.55607e-07 273.005 
-0.37 -0.27 -1.07682 1.4005 0.0487916 0.0483292 -1.45359e-07 0.0485849 8.55578e-07 272.692 
-0.35 -0.27 -1.21021 1.4885 0.0488505 0.0483527 3.6994e-05 0.0485896 8.54936e-07 272.923 
-0.33 -0.27 -1.45111 1.25126 0.0488471 0.0483745 6.21531e-05 0.0485568 8.54921e-07 272.744 
-0.41 -0.37 -0.15535 0.839688 0.0488457 0.04845 2.06646e-05 0.0486386 8.55064e-07 273.158 
-0.35 -0.37 -0.812385 1.07926 0.0487457 0.0483718 4.55749e-05 0.0485559 8.54767e-07 272.788 
-0.33 -0.37 -0.783107 0.531084 0.0487469 0.0484933 6.10345e-05 0.0485841 8.54879e-07 272.91 
-0.33 -0.35 -1.18073 0.875297 0.0488127 0.0484657 7.86208e-05 0.0486464 8.55917e-07 272.929 
-0.33 -0.31 -1.09334 1.17541 0.0488422 0.0483958 7.88339e-05 0.0486276 8.55644e-07 272.911 
-0.35 -0.25 -1.19706 1.53042 0.0487768 0.0483145 1.36909e-05 0.0485694 8.54509e-07 272.946 
-0.31 -0.49 -0.71426 0.0810694 0.0487271 0.0486446 8.83276e-05 0.0487366 8.56341e-07 273.299 
-0.29 -0.49 -0.804462 0.0110823 0.0486362 0.0484901 3.25311e-05 0.0485986 8.53978e-07 273.28 
-0.27 -0.49 -0.899552 -0.0441711 0.0486481 0.0483735 0.000124918 0.0485345 8.543e-07 272.817 
-0.31 -0.47 -0.899776 0.151188 0.0487157 0.0486351 0.00010753 0.0486734 8.54984e-07 273.378 
-0.29 -0.47 -0.806829 -0.00499085 0.04869 0.0484651 0.000147562 0.0486229 8.54519e-07 273.243 
-0.27 -0.47 -0.671259 -0.0121908 0.0486774 0.0484012 6.08255e-05 0.0485219 8.53108e-07 273.127 
-0.31 -0.45 -0.500955 0.470157 0.0487928 0.0485383 6.33097e-05 0.0486272 8.55837e-07 272.847 
-0.29 -0.45 -0.667343 -0.0214953 0.0488026 0.0485137 0.000152353 0.048658 8.54984e-07 273.292 
-0.27 -0.45 -1.09377 0.214184 0.0487753 0.0484667 0.000122498 0.0485764 8.53951e-07 273.163 
-0.31 -0.43 -0.997106 0.389927 0.048771 0.0484746 7.99817e-05 0.0486219 8.56551e-07 272.589 
-0.29 -0.43 -1.24966 0.418183 0.0488153 0.0484615 0.00010735 0.0486233 8.55476e-07 272.94 
-0.27 -0.43 -1.20148 0.398184 0.0488387 0.0484818 0.000144212 0.048655 8.55667e-07 273.057 
-0.31 -0.41 -1.35518 0.472875 0.0487711 0.0484541 7.99966e-05 0.0486076 8.54733e-07 273.089 
-0.25 -0.43 -1.23456 0.234706 0.0488007 0.0485045 0.000145387 0.04866 8.54596e-07 273.427 
-0.29 -0.41 -1.26856 0.346688 0.0487805 0.0484377 9.2378e-05 0.0486338 8.55291e-07 273.058 
-0.27 -0.41 -1.22408 0.266343 0.04879 0.0484444 0.000146245 0.048624 8.55599e-07 272.904 
-0.31 -0.39 -1.26499 0.599407 0.0487835 0.0484253 7.60135e-05 0.0485659 8.54387e-07 272.965 
-0.25 -0.41 -1.30222 0.321463 0.0488283 0.04851 0.000130286 0.0486451 8.55061e-07 273.195 
-0.29 -0.39 -1.40715 0.22776 0.0487701 0.0483743 9.48773e-05 0.0485605 8.5511e-07 272.704 
-0.27 -0.39 -1.57837 0.497682 0.0487732 0.048444 0.000143167 0.0486381 8.55331e-07 273.069 
-0.31 -0.37 -1.07248 0.674156 0.0487039 0.0483688 9.02136e-05 0.0485251 8.54673e-07 272.644 
-0.25 -0.39 -1.56514 0.408413 0.0487602 0.0484858 0.000170739 0.0486227 8.54661e-07 273.197 
-0.29 -0.37 -1.34369 0.580036 0.048746 0.0484048 8.72161e-05 0.0485508 8.54936e-07 272.705 
-0.27 -0.37 -1.34833 0.56325 0.0487927 0.0483965 7.8636e-05 0.0485908 8.54749e-07 272.99 
-0.31 -0.35 -1.23179 0.733591 0.0488656 0.0484068 4.07635e-05 0.0486336 8.55791e-07 272.897 
-0.29 -0.35 -1.10326 0.762843 0.0488386 0.0483543 5.7986e-05 0.0486084 8.55606e-07 272.815 
-0.27 -0.35 -1.45933 0.694402 0.0488042 0.0483879 8.70695e-05 0.048578 8.56073e-07 272.496 
-0.31 -0.33 -1.03809 0.805023 0.0488142 0.0484231 5.90085e-05 0.0486079 8.55334e-07 272.898 
-0.29 -0.33 -1.46719 0.985467 0.0487785 0.0482669 7.38046e-05 0.0485196 8.54145e-07 272.782 
-0.27 -0.33 -1.5353 0.706761 0.0488229 0.0484156 0.000149803 0.0486013 8.55501e-07 272.809 
-0.31 -0.31 -1.22694 0.939058 0.0488644 0.048398 0.000114941 0.0486132 8.55093e-07 273.005 
-0.29 -0.31 -1.24833 1.0433 0.0488775 0.0483096 9.28277e-05 0.0486335 8.5554e-07 272.977 
-0.27 -0.31 -1.68067 1.32163 0.0488694 0.0483706 6.98981e-05 0.0486019 8.54345e-07 273.181 
-0.31 -0.29 -1.14868 1.07364 0.0488557 0.048364 6.7068e-05 0.0486191 8.54906e-07 273.098 
-0.25 -0.31 -1.90923 1.03808 0.0488423 0.0484503 0.000164958 0.0486596 8.5522e-07 273.225 
-0.29 -0.29 -1.58737 1.42103 0.0488517 0.0483443 8.76908e-05 0.0485948 8.54616e-07 273.054 
-0.27 -0.29 -1.61103 1.38848 0.0488641 0.0483378 0.00012782 0.0485633 8.53856e-07 273.12 
-0.31 -0.27 -1.52647 1.4505 0.0488267 0.0483551 7.40218e-05 0.0486279 8.55292e-07 273.025 
-0.25 -0.29 -1.88038 1.34801 0.0488411 0.0484228 0.00013857 0.0486148 8.55165e-07 272.992 
-0.29 -0.27 -1.53712 1.80583 0.0488002 0.0482826 0.000157568 0.0485412 8.53231e-07 273.196 
-0.27 -0.27 -1.95581 1.59031 0.0487576 0.0483011 0.00010275 0.0485385 8.5326e-07 273.171 
-0.25 -0.27 -2.14481 1.57896 0.0487873 0.0483717 0.000159385 0.0485706 8.54845e-07 272.845 
-0.33 -0.45 -0.79167 0.158345 0.0488038 0.048548 4.95341e-05 0.0486107 8.55164e-07 272.969 
-0.33 -0.41 -1.40537 0.244087 0.0487526 0.0484554 5.27829e-05 0.0485734 8.54754e-07 272.89 
-0.33 -0.39 -0.996485 0.43913 0.0487989 0.0484244 2.2135e-05 0.0485693 8.54814e-07 272.848 
-0.33 -0.33 -0.954162 0.972251 0.0488426 0.0484477 5.68502e-05 0.0486493 8.55276e-07 273.15 
-0.25 -0.49 -0.812296 0.0184658 0.0486891 0.0485552 0.000119586 0.0486649 8.55818e-07 273.064 
-0.25 -0.47 -0.750163 0.0887374 0.0487058 0.0485183 5.36769e-05 0.0486212 8.55348e-07 272.969 
-0.25 -0.45 -1.33157 0.0731178 0.0487146 0.0484856 5.66111e-05 0.0486435 8.54752e-07 273.284 
-0.25 -0.37 -1.63578 0.523928 0.0488267 0.0485023 0.00010484 0.0486681 8.55757e-07 273.102 
-0.25 -0.35 -1.57621 0.858788 0.048789 0.0484596 0.000110512 0.0485797 8.54858e-07 272.892 
-0.25 -0.33 -1.75818 1.12055 0.0487619 0.0484976 5.79749e-05 0.0486639 8.5543e-07 273.183 
-0.49 -0.25 -0.00974575 1.22295 0.0487583 0.0484597 -0.000130312 0.0486502 8.55048e-07 273.227 
-0.47 -0.25 -0.258368 1.0844 0.0487557 0.0484392 -9.9021e-05 0.0486054 8.54978e-07 272.999 
-0.45 -0.25 -0.544021 0.979773 0.0486919 0.0483545 -4.32961e-05 0.0485728 8.54682e-07 272.91 
-0.49 -0.23 0.0915253 1.23686 0.0486772 0.0484592 -0.000158886 0.0485696 8.54724e-07 272.878 
-0.47 -0.23 -0.16488 1.45195 0.0486786 0.048342 -0.000124435 0.0485262 8.54208e-07 272.799 
-0.45 -0.23 -0.521368 1.01773 0.0487595 0.0483635 -8.80183e-05 0.048596 8.54411e-07 273.126 
-0.49 -0.21 -0.225006 1.38297 0.0487375 0.0484482 -0.000190978 0.0486087 8.5619e-07 272.63 
-0.43 -0.23 -0.670722 1.29077 0.0488013 0.0484183 -8.35009e-05 0.0485871 8.54701e-07 272.984 
-0.47 -0.21 -0.188661 1.48732 0.0487767 0.0483121 -0.000148877 0.0485934 8.54889e-07 272.959 
-0.41 -0.23 -0.766922 1.61161 0.0488292 0.0483464 -1.72623e-05 0.0485891 8.54921e-07 272.925 
-0.45 -0.21 -0.218196 1.28075 0.0487862 0.0483149 -0.000110325 0.0485848 8.54242e-07 273.118 
-0.49 -0.19 -0.0851334 1.52436 0.0488293 0.0484292 -0.000168396 0.0486221 8.56291e-07 272.673 
-0.39 -0.23 -0.723108 1.87308 0.0488269 0.0483043 -2.17252e-05 0.0485896 8.54495e-07 273.064 
-0.43 -0.21 -0.617653 1.55132 0.0488279 0.0484372 -7.36512e-05 0.0486504 8.55589e-07 273.056 
-0.47 -0.19 -0.142453 1.38901 0.0488243 0.0483061 -0.000130105 0.048585 8.55611e-07 272.682 
-0.41 -0.21 -0.807392 1.72434 0.0488222 0.0482919 -5.70847e-05 0.0485964 8.55219e-07 272.871 
-0.45 -0.19 -0.353203 1.73754 0.048833 0.0483365 -0.000130766 0.0485974 8.54564e-07 273.086 
-0.49 -0.17 0.11703 1.43511 0.0488102 0.0484058 -0.000176855 0.0486089 8.55474e-07 272.86 
-0.39 -0.21 -0.994835 1.93202 0.0488468 0.0483124 -2.88288e-05 0.0486009 8.55504e-07 272.805 
-0.43 -0.19 -0.682583 1.80692 0.0488399 0.0483748 -0.000132584 0.0486316 8.55668e-07 272.925 
-0.47 -0.17 -0.210005 1.94758 0.0488065 0.0482309 -0.000143321 0.0485182 8.53664e-07 272.928 
-0.41 -0.19 -0.857898 1.83177 0.0488607 0.0482763 -3.47557e-05 0.0485649 8.54788e-07 272.831 
-0.45 -0.17 -0.358036 1.77413 0.0488329 0.048343 -0.000145236 0.0486136 8.54425e-07 273.221 
-0.49 -0.15 -0.00837959 1.41862 0.0487014 0.0483118 -0.00017386 0.0485154 8.53669e-07 272.91 
-0.39 -0.19 -1.03592 2.2252 0.048816 0.0482613 -2.5837e-05 0.0485313 8.54133e-07 272.852 
-0.43 -0.17 -0.589417 2.11383 0.0487889 0.0482949 -7.73102e-05 0.0486165 8.54509e-07 273.211 
-0.47 -0.15 0.275061 1.87151 0.0487356 0.0482247 -0.000159214 0.0484355 8.53192e-07 272.614 
-0.41 -0.17 -0.737875 2.00686 0.0487361 0.048249 -3.37522e-05 0.0485288 8.52992e-07 273.202 
-0.45 -0.15 -0.236379 2.31498 0.0487575 0.048343 -0.000133625 0.0485662 8.53829e-07 273.145 
-0.39 -0.17 -0.771051 2.21939 0.0487732 0.0482463 -6.10263e-05 0.0485005 8.53086e-07 273.013 
-0.43 -0.15 -0.46782 2.22711 0.0487078 0.0481609 -3.28647e-05 0.0484746 8.53501e-07 272.735 
-0.41 -0.15 -0.698868 2.10337 0.0487871 0.0482785 -3.73034e-05 0.0485523 8.53717e-07 273.103 
-0.39 -0.15 -0.905043 2.53477 0.0487452 0.0482607 -4.67731e-05 0.0485075 8.53515e-07 272.915 
-0.43 -0.25 -0.233465 1.29695 0.0487535 0.0484783 -2.91702e-07 0.048609 8.55297e-07 272.917 
-0.41 -0.25 -0.352707 1.51139 0.0488031 0.0483094 -3.61298e-05 0.0485867 8.55088e-07 272.858 
-0.39 -0.25 -0.622355 1.69001 0.0488332 0.0483818 -3.93259e-05 0.048609 8.55713e-07 272.784 
-0.33 -0.25 -1.24737 1.6475 0.0487769 0.0483207 5.36489e-05 0.0485715 8.5417e-07 273.066 
-0.37 -0.25 -1.06433 1.52914 0.0487893 0.0483006 -8.55561e-06 0.0485497 8.55337e-07 272.571 
-0.37 -0.23 -0.864293 1.95511 0.0488392 0.0483243 -1.11801e-06 0.0486264 8.56116e-07 272.753 
-0.35 -0.23 -1.08954 1.7296 0.0488103 0.0482615 -4.18817e-06 0.048577 8.55275e-07 272.744 
-0.37 -0.21 -1.15896 2.08418 0.0488152 0.0482566 -1.18636e-05 0.0485711 8.54641e-07 272.913 
-0.35 -0.21 -1.19765 1.93289 0.0488535 0.048298 7.45622e-06 0.0485801 8.543e-07 273.073 
-0.33 -0.21 -1.42696 2.27007 0.0488954 0.0483056 2.36487e-05 0.0486313 8.55654e-07 272.928 
-0.37 -0.19 -1.02954 1.97041 0.0488742 0.0482817 -1.92399e-06 0.0485732 8.55366e-07 272.693 
-0.35 -0.19 -1.09314 2.09723 0.0488578 0.0482769 -1.40396e-05 0.0485501 8.54732e-07 272.766 
-0.33 -0.19 -1.27451 2.45373 0.0488079 0.0482008 6.32985e-05 0.0485195 8.54819e-07 272.567 
-0.37 -0.17 -0.988228 2.25828 0.0487727 0.0482432 -4.348e-05 0.0485184 8.53675e-07 272.926 
-0.35 -0.17 -1.40064 2.43607 0.0487498 0.048221 3.18268e-05 0.0485068 8.5373e-07 272.843 
-0.33 -0.17 -1.6808 2.60739 0.0487697 0.0482016 4.91812e-05 0.048506 8.53931e-07 272.774 
-0.37 -0.15 -1.20742 2.53128 0.0487466 0.0482232 -1.52093e-05 0.0484511 8.51293e-07 273.31 
-0.35 -0.15 -1.4283 2.63369 0.0487128 0.0481512 1.01671e-06 0.0484302 8.52785e-07 272.714 
-0.33 -0.15 -1.63118 2.73855 0.0487678 0.0481949 6.09347e-06 0.0484894 8.54277e-07 272.57 
-0.37 -0.13 -1.34397 2.70067 0.0487655 0.0481963 1.17457e-05 0.0484785 8.53338e-07 272.809 
-0.35 -0.13 -1.54455 3.04855 0.0487175 0.0481634 -1.60603e-05 0.0484424 8.53021e-07 272.707 
-0.33 -0.13 -1.75656 2.7297 0.0487302 0.0481708 2.99392e-05 0.0484091 8.53088e-07 272.498 
-0.37 -0.11 -1.09959 3.12984 0.0487636 0.048158 5.23961e-06 0.0484966 8.53116e-07 272.982 
-0.35 -0.11 -1.62825 3.10493 0.0487412 0.0482248 2.97611e-05 0.0484734 8.53141e-07 272.843 
-0.33 -0.11 -1.64634 2.86253 0.0486885 0.0480743 -9.5249e-06 0.0483626 8.52383e-07 272.461 
-0.35 -0.09 -1.30913 3.40982 0.0487342 0.0482107 4.59324e-05 0.0484793 8.51933e-07 273.263 
-0.49 -0.13 -0.0890362 1.42074 0.0486688 0.0482671 -0.000214149 0.0484726 8.5336e-07 272.769 
-0.47 -0.13 -0.139001 1.99717 0.0486595 0.048181 -0.00019672 0.0483984 8.52262e-07 272.702 
-0.45 -0.13 -0.0983818 2.64278 0.0486852 0.0482725 -0.000130106 0.0484735 8.53154e-07 272.839 
-0.49 -0.11 0.0872706 1.43399 0.0486996 0.0482681 -0.000190235 0.0484761 8.53431e-07 272.766 
-0.43 -0.13 -0.423806 2.47478 0.0487222 0.0481053 -0.00011091 0.0484259 8.52317e-07 272.839 
-0.47 -0.11 -0.28502 2.28287 0.0487021 0.0482099 -0.000197204 0.0484852 8.53392e-07 272.829 
-0.41 -0.13 -0.931687 2.4178 0.0487726 0.0482706 -7.44111e-05 0.0485245 8.52987e-07 273.18 
-0.45 -0.11 -0.529603 2.60715 0.0487459 0.048187 -0.000168348 0.0484824 8.52623e-07 273.059 
-0.49 -0.09 -0.388691 1.80001 0.0485608 0.0482674 -0.000194268 0.0484291 8.51853e-07 273.006 
-0.39 -0.13 -1.1964 2.62257 0.0487902 0.0482631 -1.643e-05 0.0485611 8.53702e-07 273.157 
-0.43 -0.11 -0.484925 2.84341 0.0487492 0.0481076 -0.000111335 0.0484514 8.53174e-07 272.709 
-0.47 -0.09 -0.531935 2.61316 0.0485866 0.0482288 -0.000190669 0.0484471 8.53299e-07 272.645 
-0.41 -0.11 -0.547381 2.84183 0.0487339 0.0482116 -6.82556e-05 0.0484715 8.52918e-07 272.904 
-0.45 -0.09 -0.603117 2.57391 0.048551 0.0480939 -0.00017965 0.048299 8.50917e-07 272.572 
-0.39 -0.11 -0.951295 2.73098 0.0487078 0.0481907 -3.66624e-05 0.04851 8.52296e-07 273.32 
-0.43 -0.09 -0.695275 2.81723 0.0485668 0.048067 -0.000142625 0.0483645 8.5158e-07 272.729 
-0.41 -0.09 -0.806479 3.14841 0.0486316 0.0481307 -0.000123633 0.0484187 8.52021e-07 272.894 
-0.39 -0.09 -0.841936 2.89512 0.0487061 0.0482145 -2.82592e-05 0.0484723 8.52815e-07 272.941 
-0.37 -0.09 -1.34917 3.38294 0.0486426 0.0480658 -2.09558e-05 0.0483788 8.50807e-07 273.058 
-0.35 -0.03 -1.86063 3.71847 0.0486672 0.0481651 -6.60408e-05 0.0483684 8.51227e-07 272.864 
-0.37 -0.07 -1.38085 3.48287 0.0486842 0.0480446 -3.144e-05 0.0483908 8.51374e-07 272.943 
-0.41 -0.05 -1.12769 3.41481 0.0486573 0.0480686 -0.000122974 0.0483504 8.51261e-07 272.752 
-0.45 -0.03 -0.667263 3.34737 0.0485673 0.0479935 -0.00023395 0.0483155 8.50793e-07 272.705 
-0.35 -0.07 -1.62173 3.55507 0.0487104 0.0481602 -1.1521e-05 0.0484598 8.52518e-07 272.966 
-0.39 -0.05 -1.34981 3.39305 0.0486455 0.048095 -9.36233e-05 0.0483345 8.50881e-07 272.784 
-0.43 -0.03 -0.736043 3.6761 0.0485689 0.0480318 -0.000208485 0.048298 8.50064e-07 272.84 
-0.33 -0.07 -1.72432 3.52599 0.0487923 0.0481404 1.85794e-05 0.0484809 8.5203e-07 273.241 
-0.37 -0.05 -1.56614 3.79236 0.0486395 0.0480175 -7.70717e-05 0.0483137 8.4944e-07 273.129 
-0.41 -0.03 -0.825704 3.65277 0.0486214 0.04804 -0.000142366 0.0482791 8.5038e-07 272.632 
-0.35 -0.05 -1.58986 3.56831 0.0485827 0.0481341 -6.1913e-05 0.0483404 8.51145e-07 272.732 
-0.39 -0.03 -1.40289 3.91574 0.0486134 0.0480507 -9.6928e-05 0.0483058 8.49427e-07 273.089 
-0.33 -0.05 -1.95442 3.77648 0.0486006 0.0480975 -2.58194e-05 0.0483534 8.51708e-07 272.626 
-0.37 -0.03 -1.65328 3.78886 0.0486376 0.0479634 -2.2333e-05 0.0482421 8.49679e-07 272.648 
-0.33 -0.03 -1.9424 4.09217 0.0486747 0.0480355 1.08454e-05 0.0483758 8.50847e-07 273.028 
-0.49 -0.07 0.0636191 2.15931 0.0485513 0.0482709 -0.000200502 0.0484132 8.51912e-07 272.898 
-0.47 -0.07 -0.141642 2.56417 0.0485877 0.0482272 -0.000203781 0.0484615 8.52955e-07 272.836 
-0.45 -0.07 -0.404327 2.81344 0.0486495 0.0480483 -0.000182602 0.048365 8.51551e-07 272.741 
-0.49 -0.05 -0.190937 2.28571 0.0484875 0.0482033 -0.000294224 0.0483507 8.51632e-07 272.635 
-0.43 -0.07 -0.83503 3.20405 0.0485969 0.0481036 -0.000140891 0.0483737 8.50735e-07 273.052 
-0.47 -0.05 -0.480875 2.70487 0.0485707 0.0482438 -0.00026085 0.0483997 8.52109e-07 272.758 
-0.41 -0.07 -1.0249 3.21949 0.048564 0.0481077 -0.000118802 0.0483082 8.50047e-07 272.903 
-0.45 -0.05 -0.486036 3.0364 0.048547 0.0479723 -0.000203006 0.0482809 8.49404e-07 272.955 
-0.49 -0.03 -0.0859201 2.58916 0.0485529 0.0481848 -0.000294147 0.0483454 8.5103e-07 272.798 
-0.39 -0.07 -1.30814 3.21041 0.0485783 0.0480876 -0.000100335 0.04833 8.51012e-07 272.717 
-0.43 -0.05 -0.658424 3.54325 0.0486472 0.048101 -0.000173077 0.0484109 8.51381e-07 273.054 
-0.47 -0.03 -0.302093 2.85793 0.0485508 0.0481628 -0.000250506 0.0483515 8.51212e-07 272.774 
-0.27 -0.07 -2.63352 3.65596 0.0486503 0.0481472 7.71873e-05 0.0484006 8.52583e-07 272.611 
-0.31 -0.05 -2.20951 3.98386 0.0486362 0.0480255 5.7591e-05 0.0483457 8.51385e-07 272.685 
-0.27 -0.09 -2.53492 3.52212 0.048748 0.0481862 4.0816e-05 0.048456 8.53566e-07 272.609 
-0.31 -0.07 -2.19898 3.56505 0.0487835 0.0480984 3.85003e-05 0.048467 8.52993e-07 272.854 
-0.29 -0.07 -2.57859 3.83425 0.0486975 0.0481474 7.7856e-05 0.0484126 8.52086e-07 272.838 
-0.25 -0.07 -2.58495 3.06204 0.0486688 0.0481379 9.82664e-05 0.0484002 8.51303e-07 273.019 
-0.29 -0.05 -2.1932 3.82965 0.0486731 0.0481314 8.26337e-05 0.0483715 8.52258e-07 272.551 
-0.27 -0.05 -2.29809 3.72534 0.0486318 0.0481314 8.12323e-05 0.048362 8.51451e-07 272.756 
-0.31 -0.03 -2.38695 4.23824 0.0486403 0.0480006 1.31376e-05 0.0482974 8.50603e-07 272.663 
-0.25 -0.05 -2.37623 3.17098 0.0486519 0.0481357 8.89399e-05 0.0484099 8.51891e-07 272.886 
-0.29 -0.03 -2.40453 3.90111 0.0486147 0.0480696 3.71238e-05 0.0483468 8.50584e-07 272.948 
-0.27 -0.03 -2.41791 3.6683 0.0486723 0.0481375 9.14747e-05 0.0484164 8.53021e-07 272.56 
-0.25 -0.03 -2.31813 3.32464 0.0486359 0.0481355 9.6737e-05 0.0483904 8.52242e-07 272.663 
-0.27 -0.01 -2.0993 3.88859 0.0485362 0.0480745 9.05271e-05 0.048366 8.51445e-07 272.781 
-0.31 -0.25 -1.692 1.68131 0.0488661 0.0483035 0.000106976 0.048588 8.54732e-07 272.979 
-0.29 -0.25 -2.10964 1.85312 0.0489241 0.0482998 0.000123854 0.0486047 8.54627e-07 273.106 
-0.27 -0.25 -1.95485 1.74838 0.0488944 0.0482949 0.000133828 0.0486109 8.54138e-07 273.298 
-0.29 -0.11 -2.23344 2.98115 0.0487682 0.048186 5.02765e-05 0.0484876 8.54874e-07 272.369 
-0.33 -0.09 -1.74401 3.06919 0.048747 0.0481238 4.60926e-05 0.0484133 8.52085e-07 272.842 
-0.27 -0.11 -2.44135 3.27746 0.048757 0.0481761 6.82468e-05 0.0484574 8.5327e-07 272.712 
-0.31 -0.09 -1.97173 3.3633 0.0486877 0.0480804 8.09583e-06 0.0483962 8.50637e-07 273.21 
-0.29 -0.09 -2.20233 3.45433 0.0487188 0.0481703 3.12784e-05 0.0484338 8.52709e-07 272.758 
-0.33 -0.23 -1.51481 1.7223 0.048832 0.0483012 5.08616e-05 0.0486373 8.56158e-07 272.801 
-0.31 -0.23 -1.69182 2.16284 0.048836 0.0482471 1.76351e-05 0.0485854 8.55482e-07 272.725 
-0.29 -0.23 -1.72029 1.93574 0.0488361 0.0482978 0.000110989 0.0486158 8.55332e-07 272.943 
-0.27 -0.23 -2.11135 1.71442 0.048879 0.0482896 0.000131072 0.048608 8.55436e-07 272.867 
-0.31 -0.21 -1.77522 2.29345 0.0488148 0.0481821 4.96426e-05 0.048543 8.54854e-07 272.687 
-0.29 -0.21 -2.08055 2.02135 0.0488661 0.0482826 5.3747e-05 0.0486029 8.55977e-07 272.666 
-0.27 -0.21 -1.92653 1.96563 0.0488685 0.0482964 0.000144058 0.0486016 8.54808e-07 273.031 
-0.31 -0.19 -1.46051 2.44788 0.0488322 0.0482529 5.98678e-05 0.048531 8.54565e-07 272.712 
-0.25 -0.21 -2.05827 1.51403 0.0488871 0.0482743 0.000128724 0.0486088 8.54847e-07 273.059 
-0.29 -0.19 -1.58302 2.43777 0.0487706 0.0482118 0.000100686 0.0484775 8.54576e-07 272.408 
-0.27 -0.19 -1.84934 1.80104 0.0487674 0.0482587 0.000141861 0.0485046 8.52588e-07 273.196 
-0.31 -0.17 -1.55106 2.24131 0.0487496 0.0482118 3.97744e-05 0.0484747 8.53347e-07 272.784 
-0.25 -0.19 -2.02888 2.05521 0.0487682 0.0482829 9.52156e-05 0.0485095 8.53649e-07 272.884 
-0.29 -0.17 -1.63728 2.53305 0.048804 0.0481953 8.25973e-05 0.0485454 8.53794e-07 273.039 
-0.27 -0.17 -2.09222 2.56782 0.0487531 0.0482185 0.000102079 0.0485175 8.54103e-07 272.783 
-0.31 -0.15 -1.87226 2.5525 0.0487575 0.0482036 5.57099e-05 0.048494 8.53963e-07 272.696 
-0.25 -0.17 -2.73231 2.24954 0.0488193 0.0483352 0.000136127 0.0485554 8.53274e-07 273.262 
-0.29 -0.15 -1.92165 2.60827 0.0487048 0.0481016 0.000118994 0.0484225 8.53147e-07 272.555 
-0.27 -0.15 -2.27043 2.94131 0.0487549 0.0483167 8.8653e-05 0.0485353 8.54663e-07 272.705 
-0.31 -0.13 -1.89172 2.80533 0.0487283 0.0481347 8.19667e-05 0.0484118 8.52258e-07 272.778 
-0.25 -0.15 -2.35031 2.46752 0.0487991 0.0483045 8.8074e-05 0.0485386 8.54079e-07 272.91 
-0.29 -0.13 -2.16261 2.81608 0.0487896 0.0481409 4.30952e-05 0.0484902 8.54502e-07 272.503 
-0.27 -0.13 -2.38331 3.08117 0.0487862 0.0482607 5.8295e-05 0.0485573 8.55363e-07 272.605 
-0.31 -0.11 -1.82806 3.24379 0.0487779 0.0481458 3.93749e-05 0.0484468 8.52108e-07 273.024 
-0.25 -0.13 -2.53633 2.71892 0.0487883 0.0482432 0.00012072 0.0484901 8.53649e-07 272.775 
-0.25 -0.25 -1.88698 1.60587 0.0489216 0.0483541 0.000146762 0.0486525 8.56139e-07 272.892 
-0.25 -0.23 -2.17543 1.77523 0.0488459 0.0483006 0.000112908 0.0485655 8.55104e-07 272.734 
-0.25 -0.11 -2.58364 2.92544 0.0488196 0.0482339 5.09043e-05 0.0484992 8.52768e-07 273.108 
-0.25 -0.09 -2.79774 2.98053 0.048701 0.0482081 0.000144228 0.0484588 8.51647e-07 273.239 
-0.25 -0.01 -2.52207 3.49796 0.0485692 0.0481094 0.00011879 0.0483477 8.51457e-07 272.674 
-0.23 -0.49 -0.796354 0.00677375 0.0487094 0.0485967 0.000143284 0.0486409 8.55439e-07 273.05 
-0.21 -0.49 -0.805516 -0.00577736 0.0487186 0.0485057 0.000145807 0.0485942 8.53605e-07 273.375 
-0.19 -0.49 -0.915678 0.0477125 0.0487182 0.0485959 0.000192744 0.0486472 8.5494e-07 273.245 
-0.23 -0.47 -0.880846 -0.0667073 0.0487404 0.0485815 0.000105422 0.0486946 8.56193e-07 273.111 
-0.17 -0.49 -0.918368 0.110465 0.048675 0.048601 0.000133174 0.048667 8.55587e-07 273.15 
-0.21 -0.47 -1.1221 0.2742 0.048739 0.0484958 0.000162601 0.0486241 8.54917e-07 273.123 
-0.15 -0.49 -0.907539 -0.0246167 0.04868 0.048608 0.000223985 0.0486224 8.55748e-07 272.848 