ITEM: TIMESTEP
900500
ITEM: NUMBER OF CELLS
2500
ITEM: BOX BOUNDS ss ss pp
-0.5 0.5
-0.5 0.5
-0.5 0.5
ITEM: CELLS xc yc f_U[*] f_V[*] f_Tau[1] f_Tau[2] f_Tau[3] f_Press[*] f_Mrho[*] f_Ttra[*] 
-0.49 -0.49 -0.0921193 0.0612828 0.048658 0.0485749 -4.81403e-05 0.048696 8.55761e-07 273.257 
-0.47 -0.49 -0.055855 -0.0249128 0.0486045 0.0485754 -5.13514e-06 0.0486088 8.55184e-07 272.951 
-0.45 -0.49 -0.0274785 0.0149074 0.0485898 0.0485471 1.07489e-05 0.0485378 8.54681e-07 272.714 
-0.49 -0.47 0.153512 -0.0316128 0.0486583 0.0485613 -1.66221e-06 0.0485851 8.5407e-07 273.174 
-0.43 -0.49 -0.0589454 -0.0674849 0.0485571 0.0485496 -1.07606e-05 0.0485482 8.54322e-07 272.886 
-0.47 -0.47 0.0617 0.0315145 0.0486921 0.0485648 -8.38367e-06 0.0486604 8.54503e-07 273.459 
-0.41 -0.49 0.0203061 -0.0512897 0.0486108 0.0485138 4.63915e-05 0.0485552 8.54585e-07 272.842 
-0.45 -0.47 0.0194276 0.147755 0.0486665 0.048542 4.7731e-05 0.0485836 8.54494e-07 273.031 
-0.49 -0.45 -0.0499089 -0.120547 0.0487362 0.0485859 -1.28199e-05 0.0486629 8.55102e-07 273.281 
-0.39 -0.49 0.0668935 -0.0312072 0.0486368 0.0484207 -1.33571e-05 0.0485138 8.53939e-07 272.816 
-0.43 -0.47 -0.0506093 -0.124435 0.0486662 0.0485416 -7.78494e-06 0.0486312 8.54848e-07 273.185 
-0.47 -0.45 -0.0128752 0.173849 0.0487133 0.0485011 5.29893e-05 0.0486189 8.54507e-07 273.225 
-0.37 -0.49 -0.0928844 0.154705 0.0486958 0.0485076 4.37034e-06 0.0485881 8.55121e-07 272.856 
-0.41 -0.47 -0.172397 0.102297 0.0486557 0.0484932 4.35687e-06 0.0485915 8.5597e-07 272.604 
-0.45 -0.45 -0.212786 0.111231 0.0487839 0.0486006 -1.37077e-06 0.048685 8.56389e-07 272.995 
-0.49 -0.43 -0.111608 0.0628112 0.0487034 0.0485508 -9.95264e-06 0.0486659 8.56799e-07 272.757 
-0.35 -0.49 -0.209502 0.0126605 0.0487465 0.0485701 0.000115796 0.0486005 8.55278e-07 272.875 
-0.39 -0.47 -0.571114 0.19534 0.0486873 0.0484455 3.90987e-06 0.0485652 8.54593e-07 272.895 
-0.43 -0.45 -0.211795 0.146981 0.0488256 0.0485528 4.30637e-06 0.0486552 8.54476e-07 273.438 
-0.47 -0.43 -0.206994 0.139559 0.0487558 0.0485313 -2.67726e-05 0.0487018 8.57251e-07 272.814 
-0.37 -0.47 -0.515665 0.049356 0.0486604 0.0484487 -7.17202e-06 0.0485294 8.5403e-07 272.874 
-0.41 -0.45 -0.327815 0.235642 0.0487675 0.0485034 3.87877e-06 0.0486446 8.5491e-07 273.24 
-0.45 -0.43 -0.300089 0.468866 0.0487477 0.048659 -4.30252e-05 0.0486872 8.56475e-07 272.98 
-0.49 -0.41 -0.0485709 0.299227 0.0487762 0.0484654 -2.395e-05 0.0485969 8.5569e-07 272.723 
-0.35 -0.47 -0.615909 0.177842 0.0487156 0.0485194 7.42207e-05 0.0486084 8.54878e-07 273.047 
-0.39 -0.45 -0.409712 0.347969 0.0487553 0.048408 -7.03639e-06 0.0485927 8.54871e-07 272.961 
-0.43 -0.43 -0.444584 0.0244885 0.0487366 0.0484893 2.54645e-05 0.0486127 8.55189e-07 272.972 
-0.47 -0.41 -0.344382 0.324213 0.0487876 0.0486303 -2.97074e-05 0.0487145 8.56711e-07 273.058 
-0.37 -0.45 -0.714507 0.17221 0.0486918 0.0484954 3.51885e-05 0.0485642 8.55053e-07 272.743 
-0.41 -0.43 -0.548606 0.414584 0.0487862 0.0485428 -9.04798e-06 0.0486466 8.55528e-07 273.054 
-0.45 -0.41 -0.226608 0.293788 0.0487989 0.0485449 1.07555e-05 0.04867 8.56003e-07 273.034 
-0.49 -0.39 0.0367693 0.288365 0.0487477 0.0484988 -3.46166e-05 0.048609 8.55943e-07 272.711 
-0.35 -0.45 -0.730234 0.213144 0.0486823 0.0484375 2.45987e-05 0.0485447 8.5504e-07 272.638 
-0.39 -0.43 -0.612023 0.404138 0.0487496 0.0483475 2.0191e-05 0.0485304 8.53654e-07 273 
-0.43 -0.41 -0.391643 0.300893 0.048764 0.0485635 -2.10562e-05 0.0486706 8.55097e-07 273.326 
-0.47 -0.39 0.134476 0.309792 0.0487741 0.0486048 -6.5051e-05 0.0486685 8.5691e-07 272.736 
-0.37 -0.43 -0.739732 0.30942 0.0488062 0.0484695 4.572e-05 0.0486086 8.55633e-07 272.807 
-0.41 -0.41 -0.638983 0.496217 0.0487592 0.0484812 1.41937e-05 0.048592 8.54195e-07 273.173 
-0.45 -0.39 0.0472101 0.675614 0.0487649 0.0484517 -6.35907e-06 0.0486271 8.54895e-07 273.147 
-0.35 -0.43 -0.956743 0.328479 0.0488338 0.0485003 1.72031e-06 0.048632 8.56055e-07 272.804 
-0.39 -0.41 -0.653822 0.420679 0.0487719 0.0484014 1.19941e-05 0.0485759 8.54535e-07 272.974 
-0.43 -0.39 -0.270318 0.495942 0.0488335 0.0486232 -6.92557e-06 0.0487368 8.56536e-07 273.238 
-0.37 -0.41 -0.658193 0.542213 0.0487596 0.0484506 -1.38301e-05 0.0485963 8.54753e-07 273.019 
-0.41 -0.39 -0.489678 0.697944 0.0487676 0.0484195 -1.94707e-06 0.0485905 8.54597e-07 273.036 
-0.35 -0.41 -1.05255 0.573896 0.0487113 0.0484738 -1.1742e-05 0.0485283 8.5452e-07 272.711 
-0.39 -0.39 -0.610103 0.366987 0.0487847 0.0484068 1.81849e-05 0.0485965 8.55326e-07 272.837 
-0.37 -0.39 -0.727426 0.568981 0.0488129 0.0484606 2.40766e-05 0.0486007 8.54702e-07 273.06 
-0.35 -0.39 -0.692143 0.813648 0.0488527 0.0484759 6.8445e-05 0.0485991 8.54865e-07 272.999 
-0.37 -0.37 -0.837723 0.561998 0.048792 0.0484693 -2.26617e-05 0.0486287 8.54434e-07 273.303 
-0.33 -0.49 -0.532001 0.223335 0.0487101 0.0485062 8.56426e-05 0.0485843 8.55386e-07 272.749 
-0.33 -0.47 -0.439999 0.432411 0.0486935 0.0485199 6.91956e-05 0.0486112 8.5454e-07 273.171 
-0.33 -0.43 -0.916412 0.104553 0.0487691 0.0484968 2.94074e-05 0.0486234 8.56286e-07 272.682 
-0.49 -0.37 -0.0844168 0.206351 0.0487997 0.0485761 -7.24408e-05 0.048687 8.56479e-07 272.978 
-0.47 -0.37 0.016931 0.357952 0.0488142 0.0485098 -4.94847e-05 0.0486687 8.56971e-07 272.718 
-0.45 -0.37 -0.192059 0.645682 0.0488053 0.0485324 -2.64556e-05 0.0486516 8.55049e-07 273.235 
-0.49 -0.35 0.0148975 0.38064 0.0488475 0.0485741 -4.84631e-05 0.0486816 8.5698e-07 272.787 
-0.43 -0.37 -0.309169 0.790353 0.0487866 0.048527 -1.48263e-05 0.0486526 8.5503e-07 273.247 
-0.47 -0.35 -0.078524 0.491104 0.0488548 0.0484731 -3.73855e-05 0.0486699 8.55993e-07 273.037 
-0.45 -0.35 -0.265329 0.730369 0.0488431 0.0485255 -3.30087e-06 0.0487269 8.55878e-07 273.393 
-0.49 -0.33 -0.0904984 0.473176 0.0488773 0.0485337 -3.19852e-05 0.0487114 8.57334e-07 272.842 
-0.39 -0.37 -0.53245 0.702911 0.0487754 0.0484202 2.65119e-05 0.0485588 8.54699e-07 272.825 
-0.43 -0.35 -0.199241 0.661437 0.0488157 0.0484956 -3.7245e-05 0.048665 8.56363e-07 272.891 
-0.47 -0.33 -0.294867 0.543162 0.0489034 0.0484875 -9.12551e-06 0.048676 8.56173e-07 273.013 
-0.41 -0.35 -0.428457 0.786875 0.0487811 0.0484153 4.93216e-05 0.0486083 8.55374e-07 272.888 
-0.45 -0.33 -0.29894 0.854701 0.0488668 0.0484951 -3.59367e-05 0.0486822 8.55859e-07 273.148 
-0.49 -0.31 -0.0275235 0.612743 0.0487362 0.0484516 -7.42012e-05 0.0485654 8.54576e-07 272.902 
-0.39 -0.35 -0.656139 1.09226 0.0488491 0.0484463 -2.12591e-05 0.0486305 8.55309e-07 273.033 
-0.43 -0.33 -0.404538 0.804245 0.0488541 0.0484536 4.23579e-05 0.0486618 8.5531e-07 273.209 
-0.47 -0.31 -0.209453 0.849685 0.0487476 0.0484676 -3.25311e-05 0.0485823 8.54604e-07 272.988 
-0.37 -0.35 -0.862916 0.865099 0.0487758 0.0484228 8.8889e-05 0.0485985 8.55758e-07 272.711 
-0.41 -0.33 -0.579668 0.911216 0.0488723 0.0484648 -2.04932e-05 0.0486621 8.55848e-07 273.039 
-0.45 -0.31 -0.307371 0.753729 0.0487974 0.0485101 -4.1451e-05 0.0486427 8.55292e-07 273.107 
-0.49 -0.29 -0.0852382 0.813049 0.0487015 0.0484072 -7.16448e-05 0.048584 8.54481e-07 273.037 
-0.35 -0.35 -1.14727 0.852175 0.0487731 0.0483532 2.03754e-05 0.0485649 8.5399e-07 273.086 
-0.39 -0.33 -0.79989 1.25471 0.048817 0.0483971 2.24858e-05 0.0485704 8.55455e-07 272.649 
-0.43 -0.31 -0.545854 1.01198 0.0488359 0.0484363 -5.46238e-05 0.0486536 8.55148e-07 273.215 
-0.47 -0.29 -0.192418 0.901858 0.0487251 0.0484899 -8.4771e-05 0.0486107 8.54983e-07 273.026 
-0.37 -0.33 -0.688871 1.08267 0.0488924 0.0484723 3.76192e-05 0.0486644 8.56014e-07 272.999 
-0.41 -0.31 -0.683819 1.06771 0.0488985 0.0483971 1.91457e-05 0.0486684 8.56257e-07 272.944 
-0.45 -0.29 -0.126116 0.790273 0.0487822 0.0484924 -5.0804e-05 0.0486392 8.549e-07 273.213 
-0.49 -0.27 -0.124821 0.90929 0.0488226 0.0483996 -0.000100604 0.0486442 8.55473e-07 273.058 
-0.35 -0.33 -0.735672 0.859757 0.048859 0.0483541 2.52862e-05 0.0486294 8.55267e-07 273.041 
-0.39 -0.31 -0.549978 1.20131 0.048927 0.0484298 2.84338e-05 0.0486845 8.55764e-07 273.192 
-0.43 -0.29 -0.233411 1.25057 0.0487647 0.0484013 -5.21832e-05 0.0486018 8.551e-07 272.939 
-0.47 -0.27 -0.188033 0.892321 0.0488772 0.0484952 -9.37421e-05 0.0487322 8.56257e-07 273.301 
-0.37 -0.31 -0.571883 0.873811 0.0488812 0.0483948 3.51625e-05 0.0486363 8.558e-07 272.909 
-0.41 -0.29 -0.36952 1.10246 0.0487784 0.048335 -3.97009e-05 0.048579 8.54679e-07 272.945 
-0.45 -0.27 -0.25839 0.981641 0.0488507 0.0484264 -5.15159e-05 0.0486398 8.56219e-07 272.795 
-0.35 -0.31 -0.737456 1.13462 0.0488715 0.0483954 7.23468e-05 0.0486686 8.55126e-07 273.306 
-0.39 -0.29 -0.343378 1.28789 0.048817 0.0484411 1.47869e-05 0.0486035 8.53959e-07 273.313 
-0.43 -0.27 -0.527912 1.37123 0.0488031 0.0484091 -2.92809e-06 0.0485931 8.5461e-07 273.047 
-0.37 -0.29 -0.6762 0.909826 0.0488197 0.0483863 3.07466e-05 0.0486479 8.54505e-07 273.388 
-0.41 -0.27 -0.51075 1.24395 0.0487707 0.048351 -4.54999e-05 0.0485446 8.54728e-07 272.736 
-0.35 -0.29 -0.977244 1.43346 0.0488466 0.0483478 7.49476e-05 0.0485929 8.54507e-07 273.078 
-0.39 -0.27 -0.960955 1.32434 0.0487431 0.0483723 -2.85388e-05 0.0485928 8.54966e-07 272.931 
-0.33 -0.29 -0.846655 1.38713 0.0489075 0.0484045 5.53659e-05 0.0486554 8.55647e-07 273.065 
-0.37 -0.27 -1.05825 1.43893 0.0488138 0.048346 9.62542e-07 0.0486077 8.55683e-07 272.786 
-0.35 -0.27 -1.23056 1.45546 0.0488641 0.0483622 3.67364e-05 0.0486031 8.5538e-07 272.857 
-0.33 -0.27 -1.44699 1.25532 0.0488503 0.0483724 7.48687e-05 0.0485638 8.54949e-07 272.774 
-0.41 -0.37 -0.193784 0.766984 0.0488314 0.0484476 1.28274e-05 0.0486271 8.54962e-07 273.125 
-0.35 -0.37 -0.777517 1.0413 0.0487542 0.048397 3.43918e-05 0.0485615 8.54751e-07 272.824 
-0.33 -0.37 -0.792928 0.46247 0.0487438 0.0484903 4.21862e-05 0.0485761 8.54453e-07 273.001 
-0.33 -0.35 -1.19662 0.821131 0.0488017 0.0484495 8.5378e-05 0.0486182 8.5566e-07 272.852 
-0.33 -0.31 -1.06107 1.16303 0.0488465 0.0483804 7.27583e-05 0.0486133 8.55212e-07 272.968 
-0.35 -0.25 -1.1563 1.481 0.0487726 0.0483152 1.73639e-05 0.0485666 8.54393e-07 272.967 
-0.31 -0.49 -0.646652 0.0360459 0.0487366 0.0486237 7.28695e-05 0.0487266 8.56197e-07 273.289 
-0.29 -0.49 -0.745404 0.00189794 0.048666 0.0484855 2.67748e-05 0.0486087 8.54049e-07 273.314 
-0.27 -0.49 -0.888314 -0.0119564 0.048662 0.0483669 0.000127996 0.0485405 8.54295e-07 272.851 
-0.31 -0.47 -0.82576 0.0982864 0.048734 0.0486167 0.000102052 0.0486863 8.55303e-07 273.349 
-0.29 -0.47 -0.707562 0.0152055 0.0486958 0.048441 0.000144302 0.0486098 8.54457e-07 273.19 
-0.27 -0.47 -0.590571 0.0411903 0.0486875 0.0483893 6.29759e-05 0.0485245 8.53171e-07 273.121 
-0.31 -0.45 -0.459227 0.414552 0.0487917 0.0485463 6.45818e-05 0.048639 8.55797e-07 272.926 
-0.29 -0.45 -0.637048 -0.0141918 0.0488002 0.0484809 0.000136307 0.0486313 8.54953e-07 273.152 
-0.27 -0.45 -1.04653 0.281133 0.0487868 0.0484581 0.000123449 0.0485838 8.5413e-07 273.148 
-0.31 -0.43 -1.03895 0.290264 0.0487576 0.048488 7.93363e-05 0.0486128 8.566e-07 272.523 
-0.29 -0.43 -1.26505 0.413285 0.0488016 0.0484528 0.000104524 0.048618 8.55802e-07 272.806 
-0.27 -0.43 -1.21028 0.424809 0.0488205 0.0484521 0.00013947 0.0486254 8.5535e-07 272.992 
-0.31 -0.41 -1.34988 0.434764 0.0487778 0.0484675 8.23757e-05 0.0486242 8.55144e-07 273.05 
-0.25 -0.43 -1.24495 0.225917 0.0488042 0.0485117 0.000140888 0.0486724 8.54543e-07 273.514 
-0.29 -0.41 -1.34006 0.331569 0.0487873 0.0484412 8.97497e-05 0.0486402 8.55439e-07 273.046 
-0.27 -0.41 -1.27315 0.268406 0.0487795 0.0484297 0.000143144 0.0486032 8.5552e-07 272.813 
-0.31 -0.39 -1.20866 0.594801 0.0487972 0.0484253 7.94915e-05 0.0485806 8.54649e-07 272.964 
-0.25 -0.41 -1.27496 0.276384 0.0487981 0.0485093 0.000118062 0.048638 8.54639e-07 273.29 
-0.29 -0.39 -1.31692 0.211822 0.0487677 0.0483718 0.000108987 0.0485672 8.55391e-07 272.652 
-0.27 -0.39 -1.48851 0.469564 0.0487774 0.0484475 0.000148418 0.0486358 8.55101e-07 273.13 
-0.31 -0.37 -1.05128 0.739126 0.048697 0.0483524 9.41271e-05 0.0485121 8.54128e-07 272.745 
-0.25 -0.39 -1.57581 0.454836 0.0487739 0.0484961 0.000161481 0.0486317 8.54563e-07 273.279 
-0.29 -0.37 -1.39371 0.558561 0.0487537 0.0484118 0.000101207 0.0485499 8.54631e-07 272.797 
-0.27 -0.37 -1.42095 0.505962 0.0488027 0.0484127 7.71461e-05 0.048602 8.54825e-07 273.028 
-0.31 -0.35 -1.26789 0.752583 0.0488372 0.0483822 3.80277e-05 0.048605 8.55263e-07 272.905 
-0.29 -0.35 -1.06882 0.773442 0.0488173 0.0483501 6.64085e-05 0.0485976 8.55341e-07 272.839 
-0.27 -0.35 -1.46742 0.680853 0.048795 0.0484167 9.63481e-05 0.0485935 8.56204e-07 272.541 
-0.31 -0.33 -0.992175 0.778843 0.0488056 0.0484153 5.74786e-05 0.0486024 8.55327e-07 272.87 
-0.29 -0.33 -1.47387 0.977893 0.0487727 0.0482639 7.17258e-05 0.0485152 8.53843e-07 272.854 
-0.27 -0.33 -1.5516 0.683932 0.048822 0.0484378 0.000139374 0.0486221 8.55973e-07 272.774 
-0.31 -0.31 -1.14866 0.961969 0.0488669 0.0483789 9.03365e-05 0.0485995 8.54808e-07 273.02 
-0.29 -0.31 -1.1759 1.0808 0.0488689 0.0483007 7.93321e-05 0.0486266 8.55292e-07 273.017 
-0.27 -0.31 -1.60538 1.29148 0.0488632 0.0483839 7.43918e-05 0.0486179 8.54486e-07 273.225 
-0.31 -0.29 -1.145 1.12338 0.0488521 0.0483336 6.79819e-05 0.0486013 8.54731e-07 273.054 
-0.25 -0.31 -1.8583 1.00541 0.0488382 0.0484682 0.000166963 0.0486683 8.55306e-07 273.247 
-0.29 -0.29 -1.61272 1.40848 0.0488495 0.0483363 7.98336e-05 0.0485889 8.54313e-07 273.118 
-0.27 -0.29 -1.65891 1.33928 0.0488529 0.0483467 0.000121297 0.0485682 8.53743e-07 273.184 
-0.31 -0.27 -1.49417 1.49213 0.048814 0.048331 7.82315e-05 0.0486225 8.55265e-07 273.003 
-0.25 -0.29 -1.92113 1.30387 0.0488309 0.0484246 0.000142153 0.0486145 8.54889e-07 273.078 
-0.29 -0.27 -1.55284 1.75932 0.0487785 0.0482686 0.000149584 0.0485216 8.52943e-07 273.178 
-0.27 -0.27 -1.93745 1.59417 0.0487554 0.0483035 0.00010635 0.0485379 8.53362e-07 273.135 
-0.25 -0.27 -2.13431 1.52748 0.0487814 0.0483831 0.000162005 0.0485765 8.54985e-07 272.834 
-0.33 -0.45 -0.783528 0.168707 0.0487918 0.0485697 5.02548e-05 0.0486219 8.55761e-07 272.841 
-0.33 -0.41 -1.36756 0.23065 0.0487583 0.0484758 5.60492e-05 0.0485871 8.5518e-07 272.831 
-0.33 -0.39 -0.94297 0.441417 0.048812 0.0484446 1.69902e-05 0.0485902 8.54839e-07 272.957 
-0.33 -0.33 -0.871599 0.973731 0.0488164 0.0484167 4.21556e-05 0.0486112 8.5464e-07 273.139 
-0.25 -0.49 -0.824006 -0.0531912 0.0486901 0.0485289 0.000126369 0.0486562 8.55765e-07 273.032 
-0.25 -0.47 -0.71047 0.0632701 0.0487291 0.0485128 5.44551e-05 0.0486326 8.55368e-07 273.026 
-0.25 -0.45 -1.26157 0.0915956 0.0487122 0.0484759 6.63125e-05 0.0486284 8.54391e-07 273.315 
-0.25 -0.37 -1.67531 0.588907 0.048834 0.0485229 0.000103309 0.0486758 8.55734e-07 273.152 
-0.25 -0.35 -1.5825 0.855239 0.0487918 0.0484838 0.000108574 0.0486 8.55088e-07 272.933 
-0.25 -0.33 -1.7417 1.10832 0.0487611 0.0485138 6.55743e-05 0.0486781 8.55649e-07 273.192 
-0.49 -0.25 -0.000248251 1.17883 0.0487477 0.0484402 -0.000124493 0.0486372 8.54977e-07 273.177 
-0.47 -0.25 -0.283804 1.05648 0.0487686 0.0484319 -0.0001035 0.0486022 8.55214e-07 272.905 
-0.45 -0.25 -0.567145 1.04408 0.0487158 0.048356 -4.98099e-05 0.0485784 8.54997e-07 272.84 
-0.49 -0.23 0.0471142 1.19555 0.0487244 0.0484533 -0.000148996 0.0485864 8.54837e-07 272.936 
-0.47 -0.23 -0.155452 1.44167 0.0487012 0.048334 -0.000120522 0.0485256 8.54357e-07 272.748 
-0.45 -0.23 -0.563311 1.10649 0.0487786 0.048365 -8.40895e-05 0.0486022 8.54731e-07 273.059 
-0.49 -0.21 -0.182157 1.38926 0.0487431 0.0484284 -0.000182532 0.0486061 8.5612e-07 272.638 
-0.43 -0.23 -0.676374 1.34726 0.0488202 0.0484208 -8.49869e-05 0.0486093 8.54842e-07 273.064 
-0.47 -0.21 -0.20656 1.48852 0.0487909 0.0483134 -0.000142712 0.048602 8.54847e-07 273.021 
-0.41 -0.23 -0.804491 1.65557 0.0488434 0.0483537 -1.9737e-05 0.0486028 8.54908e-07 273.006 
-0.45 -0.21 -0.233804 1.38098 0.0488018 0.0483101 -0.000105727 0.0485979 8.54581e-07 273.083 
-0.49 -0.19 -0.0332485 1.52068 0.048838 0.0484097 -0.00016006 0.0486276 8.5604e-07 272.784 
-0.39 -0.23 -0.758278 1.84641 0.0488303 0.0483106 -9.79985e-07 0.0485971 8.54632e-07 273.062 
-0.43 -0.21 -0.663603 1.59096 0.0488388 0.0484381 -6.55172e-05 0.04866 8.55474e-07 273.146 
-0.47 -0.19 -0.122585 1.40699 0.0488233 0.0482878 -0.000124089 0.0485785 8.55237e-07 272.764 
-0.41 -0.21 -0.816972 1.76935 0.0488277 0.0482842 -5.66093e-05 0.048598 8.55129e-07 272.908 
-0.45 -0.19 -0.354582 1.82744 0.048838 0.0483328 -0.000117319 0.0485956 8.54712e-07 273.028 
-0.49 -0.17 0.0875253 1.44121 0.0488123 0.0483985 -0.000159039 0.0486139 8.55428e-07 272.902 
-0.39 -0.21 -0.956829 1.95382 0.0488612 0.0483196 -2.14402e-05 0.0486118 8.55618e-07 272.83 
-0.43 -0.19 -0.678269 1.86317 0.0488257 0.048366 -0.000114047 0.0486153 8.55153e-07 272.998 
-0.47 -0.17 -0.134221 1.91783 0.048797 0.0482199 -0.000137776 0.0485261 8.5367e-07 272.97 
-0.41 -0.19 -0.839536 1.8549 0.0488374 0.0482821 -3.47186e-05 0.0485512 8.54339e-07 272.898 
-0.45 -0.17 -0.337831 1.89116 0.0488039 0.0483192 -0.000135983 0.0485935 8.54276e-07 273.156 
-0.49 -0.15 0.0109923 1.44066 0.048695 0.0482889 -0.000160744 0.0485054 8.53405e-07 272.939 
-0.39 -0.19 -0.990054 2.12649 0.0487832 0.0482343 -2.72338e-05 0.0485078 8.53835e-07 272.815 
-0.43 -0.17 -0.540364 2.13264 0.0488011 0.0483044 -8.27272e-05 0.0486162 8.54467e-07 273.222 
-0.47 -0.15 0.230017 1.8761 0.0487417 0.0482148 -0.000142555 0.0484456 8.53437e-07 272.592 
-0.41 -0.17 -0.670477 1.98761 0.0487699 0.0482596 -2.51598e-05 0.0485465 8.53301e-07 273.203 
-0.45 -0.15 -0.220491 2.29587 0.048788 0.0483498 -0.00013127 0.0485796 8.54033e-07 273.155 
-0.39 -0.17 -0.788267 2.19461 0.0487911 0.0482382 -5.94546e-05 0.0485103 8.53486e-07 272.941 
-0.43 -0.15 -0.377121 2.20611 0.0487261 0.048167 -4.83627e-05 0.0484736 8.5345e-07 272.746 
-0.41 -0.15 -0.572078 2.21496 0.0487975 0.0482633 -4.1102e-05 0.048553 8.54083e-07 272.99 
-0.39 -0.15 -0.84771 2.57676 0.0487707 0.048275 -4.42116e-05 0.0485187 8.53995e-07 272.825 
-0.43 -0.25 -0.25857 1.34445 0.0487682 0.0484715 -5.5884e-06 0.0486015 8.55254e-07 272.888 
-0.41 -0.25 -0.385307 1.52667 0.0488288 0.0483236 -3.12179e-05 0.0486128 8.55175e-07 272.977 
-0.39 -0.25 -0.678257 1.71784 0.0488501 0.0483981 -2.87142e-05 0.0486301 8.55992e-07 272.814 
-0.33 -0.25 -1.23984 1.59382 0.0487741 0.0483016 5.88557e-05 0.0485637 8.5434e-07 272.967 
-0.37 -0.25 -1.08267 1.54841 0.0487971 0.0483055 3.21959e-06 0.0485581 8.55216e-07 272.657 
-0.37 -0.23 -0.862529 1.92934 0.0488513 0.0483336 1.07459e-05 0.0486328 8.56113e-07 272.79 
-0.35 -0.23 -1.11358 1.7279 0.0488292 0.0482743 1.29702e-05 0.048591 8.55182e-07 272.853 
-0.37 -0.21 -1.09405 1.98043 0.0488149 0.0482602 1.3555e-05 0.0485665 8.54547e-07 272.918 
-0.35 -0.21 -1.18509 1.94007 0.0488545 0.0483095 1.81474e-05 0.0485811 8.54217e-07 273.105 
-0.33 -0.21 -1.39437 2.2748 0.0488732 0.0482961 2.53314e-05 0.0486177 8.55477e-07 272.908 
-0.37 -0.19 -1.01151 1.98608 0.0488679 0.0482987 1.01618e-05 0.0485835 8.55689e-07 272.648 
-0.35 -0.19 -1.11919 2.17113 0.0488593 0.0482922 -1.18352e-05 0.0485635 8.55023e-07 272.749 
-0.33 -0.19 -1.24333 2.35514 0.048832 0.048224 5.78582e-05 0.0485478 8.55001e-07 272.667 
-0.37 -0.17 -0.998619 2.25551 0.0487902 0.0482414 -5.91177e-05 0.0485267 8.53726e-07 272.956 
-0.35 -0.17 -1.37047 2.49451 0.0487891 0.0482474 3.57083e-05 0.0485358 8.54235e-07 272.844 
-0.33 -0.17 -1.64508 2.56029 0.0487741 0.0482236 5.14684e-05 0.0485101 8.54043e-07 272.761 
-0.37 -0.15 -1.21355 2.47866 0.0487564 0.0482125 -1.34665e-05 0.0484485 8.51542e-07 273.215 
-0.35 -0.15 -1.40333 2.67879 0.0487143 0.0481666 -7.84464e-06 0.0484385 8.53094e-07 272.662 
-0.33 -0.15 -1.62644 2.70533 0.048779 0.0482117 1.65333e-05 0.0485005 8.5454e-07 272.549 
-0.37 -0.13 -1.28519 2.70978 0.0487726 0.0481917 1.97426e-06 0.0484801 8.53621e-07 272.727 
-0.35 -0.13 -1.54632 3.04384 0.0487397 0.0481732 -2.72242e-06 0.0484519 8.53457e-07 272.621 
-0.33 -0.13 -1.70295 2.77982 0.0487549 0.0482 3.28633e-05 0.0484489 8.53473e-07 272.599 
-0.37 -0.11 -1.1298 3.10634 0.0487666 0.0481571 -7.52698e-06 0.0484965 8.52944e-07 273.036 
-0.35 -0.11 -1.55977 3.08245 0.0487554 0.0482201 1.4865e-05 0.0484799 8.53431e-07 272.787 
-0.33 -0.11 -1.60619 2.89845 0.0487216 0.0481071 -2.14532e-06 0.0484024 8.5307e-07 272.466 
-0.35 -0.09 -1.30043 3.43154 0.0487159 0.0482058 2.27968e-05 0.0484739 8.5225e-07 273.131 
-0.49 -0.13 -0.097941 1.45315 0.0486326 0.0482481 -0.000210105 0.0484449 8.52877e-07 272.767 
-0.47 -0.13 -0.10102 1.99119 0.0486444 0.0481871 -0.000189198 0.0483905 8.52344e-07 272.631 
-0.45 -0.13 -0.0598798 2.60843 0.0486818 0.0482957 -0.000144603 0.0484699 8.53212e-07 272.801 
-0.49 -0.11 0.0674491 1.48904 0.0486995 0.0482625 -0.000205148 0.0484647 8.52954e-07 272.854 
-0.43 -0.13 -0.456609 2.45606 0.0487153 0.0480988 -0.000111423 0.0484118 8.52166e-07 272.808 
-0.47 -0.11 -0.294021 2.21763 0.04869 0.0481985 -0.000218116 0.0484726 8.53183e-07 272.825 
-0.41 -0.13 -0.983369 2.43509 0.0487798 0.0482675 -7.90887e-05 0.0485218 8.53234e-07 273.086 
-0.45 -0.11 -0.549838 2.63498 0.0487362 0.0481933 -0.000177528 0.0484878 8.52592e-07 273.1 
-0.49 -0.09 -0.37015 1.82118 0.0485581 0.0482599 -0.000198558 0.0484213 8.51797e-07 272.98 
-0.39 -0.13 -1.11371 2.69091 0.0487957 0.0482608 -2.57176e-05 0.0485592 8.53811e-07 273.112 
-0.43 -0.11 -0.504356 2.83385 0.0487461 0.0481114 -0.000115088 0.0484532 8.52984e-07 272.779 
-0.47 -0.09 -0.547561 2.56741 0.0485904 0.048221 -0.000205717 0.0484426 8.53027e-07 272.706 
-0.41 -0.11 -0.528774 2.79209 0.0487207 0.048216 -8.96415e-05 0.0484814 8.52916e-07 272.96 
-0.45 -0.09 -0.601651 2.58625 0.0485546 0.0480994 -0.000192515 0.0483162 8.51113e-07 272.607 
-0.39 -0.11 -0.994438 2.80073 0.0487029 0.0481845 -4.89811e-05 0.0485113 8.52361e-07 273.306 
-0.43 -0.09 -0.717029 2.85573 0.0485743 0.0480656 -0.000153315 0.0483745 8.5173e-07 272.738 
-0.41 -0.09 -0.846232 3.02175 0.0486434 0.0481487 -0.000132203 0.0484295 8.5198e-07 272.967 
-0.39 -0.09 -0.810439 2.94148 0.0487003 0.048205 -4.50303e-05 0.0484733 8.52501e-07 273.047 
-0.37 -0.09 -1.2517 3.35 0.0486382 0.0480816 -2.1297e-05 0.0483968 8.50983e-07 273.103 
-0.35 -0.03 -1.78872 3.75112 0.048663 0.0481673 -6.23421e-05 0.0483797 8.51421e-07 272.866 
-0.37 -0.07 -1.37867 3.50206 0.0486792 0.0480624 -4.37611e-05 0.0484072 8.51562e-07 272.976 
-0.41 -0.05 -1.11988 3.38351 0.0486388 0.0480611 -0.000133016 0.0483487 8.51044e-07 272.812 
-0.45 -0.03 -0.608616 3.35255 0.0485608 0.047986 -0.000231605 0.0483081 8.50964e-07 272.608 
-0.35 -0.07 -1.5265 3.51715 0.0487103 0.0481675 -1.89158e-05 0.048473 8.52722e-07 272.975 
-0.39 -0.05 -1.33579 3.39429 0.0486323 0.0481008 -0.000103277 0.0483286 8.50824e-07 272.769 
-0.43 -0.03 -0.710432 3.65212 0.0485932 0.0480661 -0.000209719 0.0483377 8.50529e-07 272.915 
-0.33 -0.07 -1.68306 3.48092 0.0487823 0.0481323 7.64547e-06 0.0484675 8.52044e-07 273.161 
-0.37 -0.05 -1.48432 3.75721 0.0486367 0.0480423 -8.24208e-05 0.0483229 8.497e-07 273.098 
-0.41 -0.03 -0.803392 3.66402 0.0486359 0.0480426 -0.000139525 0.0482852 8.50176e-07 272.731 
-0.35 -0.05 -1.54318 3.54961 0.0485716 0.048133 -6.49711e-05 0.0483507 8.51167e-07 272.783 
-0.39 -0.03 -1.37002 3.88631 0.0486206 0.0480652 -0.00010407 0.0483086 8.49339e-07 273.132 
-0.33 -0.05 -1.93973 3.78324 0.0485893 0.0480811 -2.98991e-05 0.0483464 8.51732e-07 272.578 
-0.37 -0.03 -1.65875 3.68488 0.0486444 0.0479833 -3.44213e-05 0.0482516 8.49633e-07 272.716 
-0.33 -0.03 -1.90206 4.11026 0.048658 0.0480324 -6.67755e-06 0.0483683 8.50806e-07 272.999 
-0.49 -0.07 0.0734468 2.17941 0.0485902 0.0482436 -0.0002108 0.0484169 8.51737e-07 272.974 
-0.47 -0.07 -0.15722 2.5025 0.0486023 0.0482192 -0.000202236 0.0484719 8.52935e-07 272.901 
-0.45 -0.07 -0.382431 2.83344 0.0486409 0.0480592 -0.000186667 0.0483676 8.51263e-07 272.848 
-0.49 -0.05 -0.112908 2.32165 0.0484817 0.0481849 -0.000288375 0.048328 8.50923e-07 272.734 
-0.43 -0.07 -0.837532 3.17241 0.0485952 0.0481015 -0.000154393 0.0483812 8.50886e-07 273.046 
-0.47 -0.05 -0.439254 2.6769 0.048575 0.0482251 -0.000268681 0.0484013 8.51961e-07 272.815 
-0.41 -0.07 -0.963463 3.15981 0.0485575 0.0481052 -0.00013178 0.0483175 8.50186e-07 272.911 
-0.45 -0.05 -0.470506 3.0636 0.048576 0.0479926 -0.000190319 0.0483104 8.49924e-07 272.955 
-0.49 -0.03 -0.0903202 2.5855 0.0485494 0.0481567 -0.000300665 0.0483273 8.50752e-07 272.784 
-0.39 -0.07 -1.26309 3.17032 0.0485864 0.048095 -0.000103933 0.0483518 8.51194e-07 272.781 
-0.43 -0.05 -0.626001 3.48695 0.0486444 0.0481188 -0.000161182 0.0484283 8.51522e-07 273.108 
-0.47 -0.03 -0.227384 2.81379 0.0485537 0.048153 -0.000249941 0.0483437 8.51049e-07 272.782 
-0.27 -0.07 -2.57332 3.57371 0.0486551 0.0481581 8.64481e-05 0.0484029 8.52482e-07 272.657 
-0.31 -0.05 -2.17317 3.9249 0.048638 0.0480246 5.12073e-05 0.048348 8.51276e-07 272.734 
-0.27 -0.09 -2.45651 3.47029 0.0487345 0.0481883 5.81217e-05 0.0484428 8.53493e-07 272.559 
-0.31 -0.07 -2.11116 3.51168 0.0487603 0.0480958 3.76206e-05 0.0484529 8.52956e-07 272.787 
-0.29 -0.07 -2.4797 3.81258 0.0487032 0.0481438 8.86322e-05 0.0484143 8.52139e-07 272.831 
-0.25 -0.07 -2.52239 3.06154 0.0486772 0.0481352 0.000103807 0.0483949 8.51245e-07 273.008 
-0.29 -0.05 -2.22046 3.77294 0.0486758 0.0481129 9.25475e-05 0.0483656 8.5188e-07 272.639 
-0.27 -0.05 -2.29843 3.66985 0.0486432 0.0481402 9.49662e-05 0.0483688 8.51336e-07 272.832 
-0.31 -0.03 -2.32395 4.19766 0.0486211 0.0479787 2.62703e-06 0.0482691 8.49926e-07 272.721 
-0.25 -0.05 -2.46899 3.23669 0.048652 0.0481324 9.66388e-05 0.0484092 8.51774e-07 272.919 
-0.29 -0.03 -2.32389 3.79137 0.0486077 0.0480517 4.6323e-05 0.0483307 8.50341e-07 272.936 
-0.27 -0.03 -2.40587 3.68389 0.0486623 0.0481388 0.000100467 0.0484274 8.53072e-07 272.606 
-0.25 -0.03 -2.2823 3.29722 0.0486321 0.0481493 0.000101467 0.0484081 8.52427e-07 272.704 
-0.27 -0.01 -2.10741 3.89064 0.0485318 0.048087 7.80553e-05 0.0483779 8.51521e-07 272.824 
-0.31 -0.25 -1.64979 1.69157 0.0488869 0.0483051 0.000119781 0.048593 8.54749e-07 273.002 
-0.29 -0.25 -1.98379 1.83327 0.0489271 0.0483146 0.000126754 0.0486171 8.54624e-07 273.177 
-0.27 -0.25 -1.93647 1.78729 0.0488774 0.0482948 0.000122368 0.0486105 8.54309e-07 273.241 
-0.29 -0.11 -2.14621 2.98345 0.048795 0.0481881 5.85957e-05 0.048505 8.5519e-07 272.367 
-0.33 -0.09 -1.64057 3.03788 0.0487301 0.0481289 3.32299e-05 0.0484129 8.52336e-07 272.76 
-0.27 -0.11 -2.36442 3.24715 0.0487577 0.0481805 8.34939e-05 0.0484583 8.53386e-07 272.68 
-0.31 -0.09 -1.88452 3.34005 0.0486626 0.048097 2.66759e-05 0.0483954 8.50853e-07 273.137 
-0.29 -0.09 -2.10788 3.42333 0.0486936 0.0481694 3.89538e-05 0.0484237 8.52725e-07 272.696 
-0.33 -0.23 -1.5134 1.70995 0.0488336 0.0482936 5.89056e-05 0.0486281 8.5608e-07 272.774 
-0.31 -0.23 -1.70666 2.08631 0.0488215 0.0482556 2.15863e-05 0.0485732 8.5508e-07 272.785 
-0.29 -0.23 -1.72855 1.95453 0.0488232 0.0483331 0.000101216 0.0486246 8.55228e-07 273.026 
-0.27 -0.23 -2.0535 1.78145 0.0488726 0.0482911 0.000115594 0.0486039 8.54916e-07 273.01 
-0.31 -0.21 -1.72146 2.26935 0.0488122 0.0482009 5.70049e-05 0.0485421 8.54708e-07 272.729 
-0.29 -0.21 -2.03587 2.00188 0.0488659 0.0483189 5.25043e-05 0.0486225 8.56059e-07 272.749 
-0.27 -0.21 -1.83604 2.02207 0.0488571 0.0482916 0.000139189 0.0485952 8.54499e-07 273.094 
-0.31 -0.19 -1.38834 2.40753 0.0488434 0.0482536 4.42076e-05 0.0485448 8.54554e-07 272.793 
-0.25 -0.21 -2.06163 1.57348 0.0488732 0.048264 0.000112026 0.0485996 8.54737e-07 273.042 
-0.29 -0.19 -1.5602 2.43552 0.048788 0.0482418 9.97109e-05 0.0485081 8.5509e-07 272.416 
-0.27 -0.19 -1.8592 1.8537 0.0487822 0.048253 0.000149099 0.0485095 8.52684e-07 273.193 
-0.31 -0.17 -1.54396 2.22262 0.0487498 0.0482178 3.34838e-05 0.0484866 8.53655e-07 272.753 
-0.25 -0.19 -1.99298 2.07846 0.0487945 0.0482939 7.77902e-05 0.0485435 8.54111e-07 272.928 
-0.29 -0.17 -1.63742 2.52575 0.0488014 0.0482116 8.6211e-05 0.0485397 8.53728e-07 273.028 
-0.27 -0.17 -2.08807 2.61638 0.0487646 0.0482331 0.000107618 0.0485279 8.54229e-07 272.802 
-0.31 -0.15 -1.90892 2.47518 0.0487829 0.0482205 6.15754e-05 0.0485151 8.54111e-07 272.768 
-0.25 -0.17 -2.71734 2.26205 0.0488162 0.048318 0.000122876 0.0485521 8.5318e-07 273.274 
-0.29 -0.15 -1.97238 2.65441 0.0487128 0.0480915 0.000124744 0.0484073 8.52838e-07 272.568 
-0.27 -0.15 -2.2355 2.93584 0.0487624 0.0483283 8.25614e-05 0.0485439 8.54492e-07 272.808 
-0.31 -0.13 -1.88793 2.74713 0.0487395 0.0481523 8.48454e-05 0.0484247 8.52307e-07 272.836 
-0.25 -0.15 -2.28942 2.48144 0.048792 0.0483091 9.84924e-05 0.0485379 8.54064e-07 272.911 
-0.29 -0.13 -2.21698 2.86807 0.0487969 0.0481371 5.75098e-05 0.0484876 8.54763e-07 272.405 
-0.27 -0.13 -2.44474 3.03081 0.0488007 0.0482739 6.27563e-05 0.0485599 8.55344e-07 272.626 
-0.31 -0.11 -1.79338 3.26621 0.0488107 0.0481653 4.67412e-05 0.0484831 8.52623e-07 273.063 
-0.25 -0.13 -2.57477 2.70078 0.0487954 0.0482482 0.000127776 0.04848 8.53558e-07 272.747 
-0.25 -0.25 -1.88553 1.4939 0.048903 0.0483503 0.000145459 0.0486537 8.55869e-07 272.985 
-0.25 -0.23 -2.1575 1.68491 0.0488419 0.0482842 0.000120739 0.048568 8.54665e-07 272.888 
-0.25 -0.11 -2.49159 2.88986 0.0488002 0.0482251 6.42529e-05 0.0484781 8.5263e-07 273.033 
-0.25 -0.09 -2.70898 2.98358 0.0486881 0.0481966 0.000148589 0.0484455 8.51731e-07 273.138 
-0.25 -0.01 -2.48204 3.53506 0.0485648 0.0481124 0.000111861 0.0483587 8.51696e-07 272.659 
-0.23 -0.49 -0.801659 0.0182083 0.0487072 0.0485902 0.00014499 0.0486404 8.55336e-07 273.081 
-0.21 -0.49 -0.870422 -0.0355568 0.0487281 0.0485178 0.000145403 0.0486112 8.53721e-07 273.433 
-0.19 -0.49 -0.96664 0.0434252 0.0487246 0.0485839 0.000193818 0.0486462 8.55042e-07 273.207 
-0.23 -0.47 -0.849815 -0.0317439 0.0487562 0.0485821 9.99091e-05 0.0486992 8.56359e-07 273.084 
-0.17 -0.49 -0.971026 0.0895469 0.0486833 0.0486146 0.000128903 0.0486522 8.55106e-07 273.22 
-0.21 -0.47 -1.13337 0.191303 0.0487434 0.0484985 0.000148152 0.0486324 8.55108e-07 273.109 
-0.15 -0.49 -0.921345 -0.0314444 0.0486838 0.0486052 0.000221176 0.048629 8.55769e-07 272.879 