ITEM: TIMESTEP
996500
ITEM: NUMBER OF CELLS
2500
ITEM: BOX BOUNDS ss ss pp
-0.5 0.5
-0.5 0.5
-0.5 0.5
ITEM: CELLS xc yc f_U[*] f_V[*] f_Tau[1] f_Tau[2] f_Tau[3] f_Press[*] f_Mrho[*] f_Ttra[*] 
-0.49 -0.49 -0.0303335 -0.00153911 0.0487181 0.0485911 -4.16992e-05 0.0487037 8.56106e-07 273.19 
-0.47 -0.49 -0.00516129 0.0130426 0.0486713 0.0485855 1.18796e-05 0.0486289 8.5514e-07 273.079 
-0.45 -0.49 -0.0528312 0.010234 0.0486722 0.0485742 4.32752e-05 0.0486209 8.55974e-07 272.767 
-0.49 -0.47 0.0342767 -0.0951668 0.0486808 0.0485795 -3.77673e-07 0.0486278 8.54756e-07 273.195 
-0.43 -0.49 -0.145107 0.0640639 0.0486513 0.0485358 -3.48396e-06 0.0485783 8.5515e-07 272.791 
-0.47 -0.47 0.0679393 0.0405912 0.0486983 0.0485784 -8.5014e-06 0.0486506 8.54693e-07 273.343 
-0.41 -0.49 -0.280418 0.0307607 0.0486769 0.0485448 4.32079e-05 0.0486126 8.55046e-07 273.017 
-0.45 -0.47 0.000230909 0.192136 0.0487021 0.0485637 2.89781e-05 0.0486218 8.55175e-07 273.027 
-0.49 -0.45 -0.00934852 -0.0883451 0.048708 0.0485937 -2.46123e-05 0.0486493 8.55199e-07 273.174 
-0.39 -0.49 -0.290992 0.00284324 0.0486818 0.0484658 5.92619e-06 0.0485704 8.54422e-07 272.979 
-0.43 -0.47 -0.0538486 0.0419005 0.048698 0.0485504 1.88884e-05 0.0486262 8.54896e-07 273.142 
-0.47 -0.45 -0.117453 0.149758 0.0486949 0.0485424 1.27096e-05 0.0486208 8.55067e-07 273.056 
-0.37 -0.49 -0.359637 0.0485777 0.0487097 0.0485342 2.49363e-05 0.0486228 8.55848e-07 272.818 
-0.41 -0.47 -0.202907 0.321709 0.048687 0.0485052 2.84189e-05 0.0486122 8.55442e-07 272.888 
-0.45 -0.45 -0.223906 0.144214 0.0487385 0.0485655 1.94553e-06 0.0486578 8.56134e-07 272.924 
-0.49 -0.43 -0.10649 0.0480382 0.0487091 0.0485597 -1.6829e-05 0.048641 8.56337e-07 272.764 
-0.35 -0.49 -0.422198 0.0486914 0.0486903 0.0485322 7.2524e-05 0.048591 8.55095e-07 272.88 
-0.39 -0.47 -0.460318 0.155468 0.0486989 0.0484969 3.2355e-05 0.0486079 8.55169e-07 272.952 
-0.43 -0.45 -0.332851 0.283223 0.048773 0.0485534 3.30093e-05 0.0486413 8.54678e-07 273.296 
-0.47 -0.43 -0.202756 0.173593 0.0487315 0.0485405 -1.49273e-05 0.0486656 8.56439e-07 272.87 
-0.37 -0.47 -0.523317 0.0591741 0.0486428 0.048466 3.22529e-05 0.0485419 8.53941e-07 272.973 
-0.41 -0.45 -0.288921 0.342912 0.0487201 0.048481 1.93989e-05 0.0485991 8.54777e-07 273.027 
-0.45 -0.43 -0.311569 0.346565 0.0487386 0.0485789 -2.46156e-05 0.0486567 8.55998e-07 272.96 
-0.49 -0.41 -0.0228903 0.303278 0.0487545 0.0485284 -9.4608e-06 0.0486063 8.55731e-07 272.763 
-0.35 -0.47 -0.672535 0.0597617 0.0486965 0.0485155 8.44643e-05 0.0486144 8.55266e-07 272.957 
-0.39 -0.45 -0.366516 0.253487 0.0487346 0.0484776 5.84873e-05 0.0485975 8.55094e-07 272.916 
-0.43 -0.43 -0.324543 0.338912 0.048768 0.048488 1.59103e-05 0.0486371 8.55577e-07 272.985 
-0.47 -0.41 -0.358203 0.305488 0.0487788 0.0485973 -4.62073e-05 0.048703 8.57075e-07 272.877 
-0.37 -0.45 -0.623055 0.308697 0.0487033 0.0485104 5.12678e-05 0.0485973 8.54956e-07 272.96 
-0.41 -0.43 -0.491354 0.316176 0.0488106 0.0485066 3.64258e-05 0.0486541 8.55852e-07 272.992 
-0.45 -0.41 -0.379575 0.307095 0.0487848 0.048526 -1.19916e-05 0.0486751 8.56341e-07 272.955 
-0.49 -0.39 -0.0536122 0.357315 0.0487635 0.0485511 -1.619e-05 0.0486415 8.56559e-07 272.697 
-0.35 -0.45 -0.728599 0.111991 0.0486668 0.0484372 4.77246e-05 0.048522 8.54662e-07 272.631 
-0.39 -0.43 -0.474625 0.385032 0.0487795 0.0484283 3.51253e-05 0.0485821 8.54456e-07 273.034 
-0.43 -0.41 -0.474021 0.449909 0.0487456 0.0485279 -8.64086e-07 0.0486395 8.55374e-07 273.063 
-0.47 -0.39 -0.00474928 0.446213 0.0487705 0.0485979 -5.29136e-05 0.0486695 8.56958e-07 272.727 
-0.37 -0.43 -0.592303 0.421283 0.0488195 0.0485015 8.1044e-05 0.0486357 8.559e-07 272.874 
-0.41 -0.41 -0.484677 0.328007 0.0487223 0.0484422 2.45863e-05 0.0485498 8.54119e-07 272.96 
-0.45 -0.39 -0.0995227 0.516941 0.0487527 0.0484456 -1.06601e-05 0.0486152 8.55808e-07 272.789 
-0.35 -0.43 -0.683107 0.211764 0.0488282 0.0484928 2.99312e-05 0.0486315 8.5655e-07 272.644 
-0.39 -0.41 -0.401196 0.315906 0.0487667 0.0484496 2.76113e-05 0.048585 8.55186e-07 272.818 
-0.43 -0.39 -0.234261 0.470619 0.0487881 0.0485542 2.27446e-05 0.0486767 8.56315e-07 272.972 
-0.37 -0.41 -0.362165 0.574399 0.0487777 0.0484695 4.28798e-05 0.0486005 8.55249e-07 272.884 
-0.41 -0.39 -0.305097 0.457597 0.0487477 0.0484245 7.78549e-07 0.0485972 8.55006e-07 272.943 
-0.35 -0.41 -0.71669 0.458719 0.0487632 0.0485049 3.89331e-05 0.0485843 8.55442e-07 272.732 
-0.39 -0.39 -0.572023 0.320704 0.048773 0.0484507 1.66399e-05 0.0486177 8.55786e-07 272.809 
-0.37 -0.39 -0.670547 0.586791 0.0487916 0.0484505 3.10427e-05 0.0486069 8.54957e-07 273.013 
-0.35 -0.39 -0.658576 0.721976 0.0488159 0.0485138 7.81801e-05 0.0486359 8.55744e-07 272.925 
-0.37 -0.37 -0.840242 0.544332 0.0488305 0.0484388 8.47715e-06 0.0486235 8.55024e-07 273.085 
-0.33 -0.49 -0.569099 0.0333693 0.0486535 0.0484748 9.4602e-05 0.0485811 8.54694e-07 272.952 
-0.33 -0.47 -0.596059 0.182765 0.0486709 0.0484874 8.95815e-05 0.0485823 8.54918e-07 272.888 
-0.33 -0.43 -0.746077 0.0665679 0.0487727 0.048485 4.57572e-05 0.0485947 8.55788e-07 272.68 
-0.49 -0.37 -0.0312223 0.337233 0.0487652 0.0485863 -5.05321e-05 0.0486672 8.562e-07 272.955 
-0.47 -0.37 -0.0985857 0.545443 0.0487968 0.0485619 -3.57085e-05 0.0486857 8.56369e-07 273.005 
-0.45 -0.37 -0.357833 0.597226 0.0487756 0.0484613 -1.43629e-05 0.0486301 8.55109e-07 273.095 
-0.49 -0.35 0.0139846 0.511725 0.0488408 0.048602 -5.01494e-05 0.0487016 8.5716e-07 272.842 
-0.43 -0.37 -0.540928 0.648143 0.0487895 0.048502 -2.87628e-06 0.0486567 8.55151e-07 273.231 
-0.47 -0.35 -0.167637 0.676255 0.0488289 0.0485253 -1.63097e-05 0.0486937 8.5618e-07 273.111 
-0.45 -0.35 -0.245801 0.779228 0.0487944 0.0484459 6.36952e-06 0.0486648 8.55315e-07 273.224 
-0.49 -0.33 -0.0969446 0.517871 0.0487828 0.0485198 -4.23336e-05 0.0486678 8.56701e-07 272.799 
-0.39 -0.37 -0.748269 0.523518 0.0487873 0.0484036 -5.62346e-06 0.0485831 8.55431e-07 272.729 
-0.43 -0.35 -0.155359 0.541081 0.0488049 0.0484913 -4.62567e-05 0.0486609 8.55648e-07 273.096 
-0.47 -0.33 -0.0516217 0.747548 0.0488177 0.0485152 -1.37431e-05 0.0486388 8.55686e-07 272.96 
-0.41 -0.35 -0.461703 0.804735 0.0487945 0.048449 3.50151e-05 0.0486155 8.55407e-07 272.918 
-0.45 -0.33 -0.0989888 0.8405 0.0488407 0.0484537 -3.10689e-05 0.0486273 8.55346e-07 273.004 
-0.49 -0.31 -0.0498249 0.632097 0.0487255 0.0484879 -8.6462e-05 0.0485876 8.54915e-07 272.918 
-0.39 -0.35 -0.670947 0.741099 0.0488292 0.0484446 -1.13042e-05 0.0486095 8.55076e-07 272.99 
-0.43 -0.33 -0.406624 0.786179 0.0488524 0.048475 1.59928e-05 0.0486434 8.55031e-07 273.194 
-0.47 -0.31 -0.167278 0.861821 0.0487517 0.0484803 -5.43934e-05 0.0485964 8.55001e-07 272.941 
-0.37 -0.35 -0.942617 0.780255 0.0487595 0.0483811 3.75129e-05 0.0485614 8.54729e-07 272.831 
-0.41 -0.33 -0.539073 0.872591 0.0488402 0.0484561 -9.38426e-06 0.0486423 8.55396e-07 273.072 
-0.45 -0.31 -0.177149 0.841998 0.0488107 0.0484757 -5.74569e-05 0.0486279 8.55484e-07 272.963 
-0.49 -0.29 -0.0568171 0.821933 0.0487603 0.0484741 -9.3772e-05 0.0486061 8.55604e-07 272.803 
-0.35 -0.35 -1.08488 0.811478 0.0487437 0.0483909 5.00536e-05 0.0485855 8.54788e-07 272.947 
-0.39 -0.33 -0.648882 1.0541 0.0488172 0.0484149 3.44032e-05 0.0485919 8.55381e-07 272.794 
-0.43 -0.31 -0.294015 1.01575 0.0488042 0.0484462 -4.52171e-05 0.0486174 8.55731e-07 272.825 
-0.47 -0.29 -0.188889 0.83858 0.0487644 0.0484753 -8.36701e-05 0.0486296 8.55925e-07 272.832 
-0.37 -0.33 -0.73709 1.04744 0.0488183 0.0483823 5.35485e-05 0.0485931 8.54611e-07 273.046 
-0.41 -0.31 -0.633599 1.00216 0.0488495 0.0484111 2.79396e-05 0.0486438 8.56101e-07 272.856 
-0.45 -0.29 -0.21669 0.92065 0.0487746 0.0484538 -5.82372e-05 0.0486127 8.55394e-07 272.907 
-0.49 -0.27 -0.146442 0.956625 0.0488204 0.0484578 -7.84956e-05 0.0486572 8.56347e-07 272.853 
-0.35 -0.33 -0.90823 0.787568 0.0488343 0.0484125 1.35041e-05 0.0486358 8.55348e-07 273.051 
-0.39 -0.31 -0.571485 1.08805 0.048862 0.0484216 3.90707e-05 0.0486508 8.55652e-07 273.038 
-0.43 -0.29 -0.36047 1.22052 0.0487762 0.0483914 -4.94367e-05 0.0485656 8.55385e-07 272.645 
-0.47 -0.27 -0.185549 0.909981 0.0488322 0.0484574 -8.75369e-05 0.0486698 8.56429e-07 272.897 
-0.37 -0.31 -0.655638 1.08217 0.0488615 0.0483988 1.33766e-05 0.04863 8.55224e-07 273.058 
-0.41 -0.29 -0.30354 1.087 0.0488208 0.0483404 -2.50382e-05 0.0485795 8.54663e-07 272.954 
-0.45 -0.27 -0.306588 1.058 0.0488407 0.0484071 -6.63493e-05 0.0486052 8.56249e-07 272.592 
-0.35 -0.31 -0.854147 1.17841 0.0488588 0.0484046 6.62831e-05 0.0486318 8.55304e-07 273.043 
-0.39 -0.29 -0.583539 1.28551 0.0488448 0.0484314 2.18337e-05 0.048621 8.54891e-07 273.114 
-0.43 -0.27 -0.46346 1.26511 0.048838 0.0483958 -2.38583e-05 0.0486099 8.55529e-07 272.848 
-0.37 -0.29 -0.769876 1.05553 0.0488392 0.0483925 4.16065e-05 0.0486341 8.54691e-07 273.251 
-0.41 -0.27 -0.576668 1.27543 0.0488011 0.048331 -3.33742e-05 0.0485335 8.54905e-07 272.618 
-0.35 -0.29 -0.989213 1.45465 0.0488443 0.0483885 5.74994e-05 0.0485991 8.54961e-07 272.968 
-0.39 -0.27 -0.853624 1.46774 0.0488012 0.0483869 -2.63635e-06 0.0486091 8.55015e-07 273.007 
-0.33 -0.29 -1.10111 1.38708 0.0488661 0.0484025 3.91028e-05 0.0486281 8.55077e-07 273.094 
-0.37 -0.27 -1.08067 1.35002 0.0488487 0.0483783 1.80943e-05 0.0486217 8.55039e-07 273.07 
-0.35 -0.27 -1.18165 1.52034 0.0488633 0.0483919 2.96979e-05 0.0486136 8.56059e-07 272.699 
-0.33 -0.27 -1.30448 1.4509 0.0488516 0.0483637 7.98045e-05 0.0485755 8.54836e-07 272.876 
-0.41 -0.37 -0.564543 0.599469 0.0488392 0.0484695 1.15251e-05 0.0486534 8.56002e-07 272.941 
-0.35 -0.37 -0.866944 0.882529 0.0488328 0.0484549 5.47774e-05 0.0486273 8.55563e-07 272.934 
-0.33 -0.37 -0.88445 0.529595 0.048811 0.0484507 6.66642e-05 0.0486209 8.55194e-07 273.016 
-0.33 -0.35 -1.2337 0.791997 0.0488047 0.0484417 8.57795e-05 0.0486376 8.55523e-07 273.005 
-0.33 -0.31 -1.2273 0.998224 0.0488358 0.0483746 6.16273e-05 0.0486011 8.55039e-07 272.955 
-0.35 -0.25 -1.26373 1.60866 0.0487994 0.0483505 4.25509e-05 0.0485912 8.5527e-07 272.826 
-0.31 -0.49 -0.562082 0.0118725 0.0486751 0.0485531 8.8619e-05 0.0486406 8.55242e-07 273.111 
-0.29 -0.49 -0.629567 0.0604691 0.0486703 0.0484917 9.24174e-05 0.0485973 8.54766e-07 273.02 
-0.27 -0.49 -0.754628 -0.0186455 0.0486633 0.0484568 0.000127671 0.048554 8.54862e-07 272.747 
-0.31 -0.47 -0.754002 -0.0272713 0.0486981 0.0485408 8.61136e-05 0.0486306 8.54484e-07 273.298 
-0.29 -0.47 -0.692122 0.0855349 0.0486993 0.0484485 0.000127719 0.0485931 8.54707e-07 273.016 
-0.27 -0.47 -0.612739 0.0270157 0.0486966 0.0484609 0.000105892 0.0485563 8.54416e-07 272.902 
-0.31 -0.45 -0.623312 0.190038 0.0487519 0.0484941 7.72861e-05 0.0486124 8.5545e-07 272.887 
-0.29 -0.45 -0.744081 0.0826885 0.0487409 0.0484547 0.000126238 0.0486073 8.54737e-07 273.086 
-0.27 -0.45 -1.05366 0.29274 0.0487408 0.0484775 0.000122793 0.0485865 8.5498e-07 272.891 
-0.31 -0.43 -1.04386 0.207599 0.0487567 0.0484307 8.69876e-05 0.0485946 8.55551e-07 272.755 
-0.29 -0.43 -1.21116 0.290909 0.0487825 0.0484438 0.000106694 0.0486119 8.55423e-07 272.893 
-0.27 -0.43 -1.18914 0.438263 0.0487991 0.0484863 0.000121702 0.0486274 8.54922e-07 273.14 
-0.31 -0.41 -1.12946 0.363361 0.0487843 0.0484021 0.00010364 0.0485976 8.54965e-07 272.959 
-0.25 -0.43 -1.22614 0.230577 0.0487555 0.048485 0.000130014 0.0486206 8.53976e-07 273.404 
-0.29 -0.41 -1.21066 0.382509 0.0487765 0.0484436 8.98773e-05 0.0486211 8.55321e-07 272.977 
-0.27 -0.41 -1.29935 0.342184 0.0487641 0.048467 0.000136172 0.048611 8.556e-07 272.831 
-0.31 -0.39 -1.01451 0.506578 0.0487894 0.0483846 8.58075e-05 0.0485775 8.54327e-07 273.049 
-0.25 -0.41 -1.3274 0.322371 0.0487742 0.0484894 0.000118005 0.048644 8.553e-07 273.112 
-0.29 -0.39 -1.07931 0.348155 0.0488158 0.0483904 0.000100808 0.0486093 8.55462e-07 272.866 
-0.27 -0.39 -1.27696 0.674303 0.0488461 0.0484735 0.000136705 0.0487032 8.56445e-07 273.079 
-0.31 -0.37 -1.11045 0.649309 0.0487934 0.0483732 8.21633e-05 0.0485905 8.54881e-07 272.946 
-0.25 -0.39 -1.53485 0.523837 0.0488313 0.0485 0.000148505 0.0486824 8.5589e-07 273.139 
-0.29 -0.37 -1.32923 0.608499 0.0487894 0.048373 8.09989e-05 0.0485826 8.55579e-07 272.679 
-0.27 -0.37 -1.45814 0.71261 0.0488336 0.0484071 8.59465e-05 0.048633 8.55435e-07 273.008 
-0.31 -0.35 -1.31523 0.696574 0.0488427 0.0484065 5.80741e-05 0.0486389 8.55629e-07 272.979 
-0.29 -0.35 -1.28455 0.798798 0.048844 0.0483494 6.5379e-05 0.0486198 8.55606e-07 272.879 
-0.27 -0.35 -1.50254 0.928899 0.0488403 0.0484069 8.23737e-05 0.0486157 8.55524e-07 272.882 
-0.31 -0.33 -1.11409 0.890999 0.0488294 0.0483943 5.76162e-05 0.0486064 8.55466e-07 272.848 
-0.29 -0.33 -1.55271 1.04004 0.0488133 0.0483321 7.16427e-05 0.0485769 8.55147e-07 272.785 
-0.27 -0.33 -1.62668 0.923427 0.0488073 0.0483896 0.000108026 0.0485791 8.551e-07 272.812 
-0.31 -0.31 -1.33407 1.01206 0.0488376 0.0483737 7.00449e-05 0.0486075 8.54889e-07 273.039 
-0.29 -0.31 -1.41695 1.2669 0.0488286 0.0483464 8.28476e-05 0.0486134 8.55028e-07 273.027 
-0.27 -0.31 -1.72033 1.13404 0.0488103 0.0483555 8.2666e-05 0.0485747 8.54255e-07 273.057 
-0.31 -0.29 -1.42384 1.23718 0.0488228 0.0483152 5.45205e-05 0.0485639 8.54041e-07 273.065 
-0.25 -0.31 -1.88412 1.17015 0.0488073 0.0484303 0.000120875 0.0486345 8.54882e-07 273.193 
-0.29 -0.29 -1.76279 1.3473 0.0488268 0.0483506 7.58928e-05 0.0485962 8.54222e-07 273.188 
-0.27 -0.29 -1.7836 1.30142 0.0488634 0.0483487 0.000111742 0.0485868 8.5432e-07 273.104 
-0.31 -0.27 -1.4964 1.55654 0.048841 0.0483541 7.84369e-05 0.0486137 8.55237e-07 272.962 
-0.25 -0.29 -1.97128 1.29073 0.0488701 0.0484111 0.000100527 0.0486343 8.55083e-07 273.127 
-0.29 -0.27 -1.56758 1.60488 0.0487971 0.0483029 0.000114829 0.0485535 8.54012e-07 273.015 
-0.27 -0.27 -1.89714 1.54695 0.048761 0.0483291 7.79603e-05 0.0485505 8.53423e-07 273.187 
-0.25 -0.27 -2.10884 1.42127 0.0487695 0.0483484 0.000125341 0.0485731 8.54593e-07 272.94 
-0.33 -0.45 -0.740456 0.0226123 0.0487549 0.0485201 4.72439e-05 0.0486105 8.55746e-07 272.782 
-0.33 -0.41 -1.10557 0.311605 0.0488145 0.0484624 7.37688e-05 0.0485878 8.55499e-07 272.733 
-0.33 -0.39 -0.857416 0.497277 0.0487802 0.0484239 6.49841e-05 0.0485834 8.54952e-07 272.883 
-0.33 -0.33 -0.946505 0.88536 0.0488168 0.0483979 3.10334e-05 0.0485939 8.54528e-07 273.077 
-0.25 -0.49 -0.743174 0.00144552 0.0486029 0.0484501 0.00011565 0.0485633 8.55052e-07 272.738 
-0.25 -0.47 -0.795176 0.156537 0.0487341 0.0484872 8.57065e-05 0.0486086 8.55396e-07 272.883 
-0.25 -0.45 -1.16623 0.133141 0.0487275 0.0484789 8.41117e-05 0.0486003 8.54763e-07 273.038 
-0.25 -0.37 -1.61062 0.755397 0.0488648 0.0485149 0.000125536 0.0486815 8.558e-07 273.163 
-0.25 -0.35 -1.74145 0.86639 0.0488355 0.0484439 0.000117858 0.0486418 8.55893e-07 272.911 
-0.25 -0.33 -1.66324 1.10023 0.0487797 0.0484463 9.08736e-05 0.0486337 8.5533e-07 273.045 
-0.49 -0.25 -0.00140311 1.17272 0.0487678 0.0484495 -0.000118376 0.0486564 8.55702e-07 273.054 
-0.47 -0.25 -0.306579 1.01739 0.0488203 0.0484232 -8.49726e-05 0.0486191 8.55535e-07 272.898 
-0.45 -0.25 -0.412542 1.15249 0.048781 0.0483967 -5.43669e-05 0.0486248 8.55845e-07 272.83 
-0.49 -0.23 -0.0334211 1.23195 0.0486986 0.0484362 -0.000154812 0.0485719 8.5484e-07 272.854 
-0.47 -0.23 -0.103619 1.2762 0.0487269 0.0483775 -0.000115125 0.0485365 8.54384e-07 272.801 
-0.45 -0.23 -0.528017 1.3144 0.0487599 0.0483594 -8.80805e-05 0.0486044 8.54928e-07 273.008 
-0.49 -0.21 -0.0983956 1.35835 0.0487332 0.048442 -0.000171684 0.0485902 8.55052e-07 272.889 
-0.43 -0.23 -0.533923 1.3946 0.0488008 0.0483763 -6.28562e-05 0.0486075 8.54613e-07 273.127 
-0.47 -0.21 -0.308997 1.46709 0.0487649 0.0483178 -0.000161087 0.0485614 8.54192e-07 273.002 
-0.41 -0.23 -0.770763 1.78332 0.0488086 0.0483012 -2.77933e-05 0.0485567 8.54302e-07 272.941 
-0.45 -0.21 -0.296596 1.46261 0.0487968 0.0483452 -8.40899e-05 0.0486015 8.54607e-07 273.095 
-0.49 -0.19 -0.0326418 1.47237 0.0488114 0.0484229 -0.000156098 0.0486176 8.55365e-07 272.943 
-0.39 -0.23 -0.744613 1.82983 0.0488152 0.0483272 6.17006e-06 0.0485855 8.54117e-07 273.162 
-0.43 -0.21 -0.690793 1.63777 0.0488033 0.0483414 -5.57413e-05 0.0486023 8.54609e-07 273.098 
-0.47 -0.19 -0.075715 1.60464 0.0487661 0.0482853 -0.000124122 0.048559 8.54379e-07 272.929 
-0.41 -0.21 -0.807439 1.83912 0.0488133 0.0482717 -3.02938e-05 0.0485824 8.54182e-07 273.123 
-0.45 -0.19 -0.420445 1.772 0.0487678 0.0483088 -9.23708e-05 0.0485652 8.53659e-07 273.194 
-0.49 -0.17 0.0613689 1.37069 0.0487392 0.048395 -0.000158941 0.0485825 8.55454e-07 272.718 
-0.39 -0.21 -0.968764 2.06266 0.0488316 0.0483334 -3.35697e-05 0.0486037 8.54892e-07 273.016 
-0.43 -0.19 -0.659845 1.87853 0.0487878 0.0483137 -8.87791e-05 0.0485869 8.54471e-07 273.056 
-0.47 -0.17 -0.181542 2.04194 0.0487603 0.0482491 -0.000126087 0.0485097 8.53394e-07 272.966 
-0.41 -0.19 -0.831198 1.95286 0.0488102 0.0482814 -5.26714e-05 0.0485612 8.54189e-07 273.002 
-0.45 -0.17 -0.32294 1.90852 0.0488026 0.0482999 -0.000144184 0.0485831 8.54178e-07 273.129 
-0.49 -0.15 -0.0733981 1.46562 0.0486831 0.0483081 -0.000175281 0.048503 8.53684e-07 272.836 
-0.39 -0.19 -0.942802 2.16447 0.0488145 0.0482958 -4.86752e-05 0.0485518 8.54246e-07 272.931 
-0.43 -0.17 -0.510568 2.07592 0.0487985 0.0482658 -9.4245e-05 0.0485806 8.54351e-07 273.059 
-0.47 -0.15 0.171495 1.9247 0.048727 0.0482651 -0.0001631 0.0484832 8.53265e-07 272.858 
-0.41 -0.17 -0.638722 2.13864 0.048778 0.0482594 -5.90988e-05 0.0485353 8.53163e-07 273.184 
-0.45 -0.15 -0.0749043 2.2193 0.0487347 0.0482681 -0.000141467 0.0485187 8.53233e-07 273.069 
-0.39 -0.17 -0.828578 2.24783 0.0487755 0.0482662 -4.47569e-05 0.0485157 8.53569e-07 272.944 
-0.43 -0.15 -0.29987 2.19126 0.048736 0.0481835 -6.69247e-05 0.0484793 8.52966e-07 272.932 
-0.41 -0.15 -0.525268 2.37398 0.0487619 0.0482571 -5.41307e-05 0.0485237 8.53324e-07 273.067 
-0.39 -0.15 -0.831096 2.6367 0.0487627 0.0482636 -5.18249e-05 0.0485154 8.54344e-07 272.695 
-0.43 -0.25 -0.394276 1.41229 0.0487789 0.0483941 -2.41244e-05 0.0485836 8.55262e-07 272.785 
-0.41 -0.25 -0.463161 1.52087 0.0488066 0.0482889 -2.49971e-05 0.0485641 8.54873e-07 272.8 
-0.39 -0.25 -0.832544 1.69717 0.0488268 0.0483908 -1.97037e-05 0.0486042 8.55357e-07 272.87 
-0.33 -0.25 -1.40733 1.73013 0.0487929 0.0483351 6.2725e-05 0.0485807 8.54806e-07 272.914 
-0.37 -0.25 -1.10475 1.47369 0.0488008 0.0483484 1.76634e-05 0.0485901 8.55308e-07 272.807 
-0.37 -0.23 -1.0633 1.91287 0.0488544 0.0483731 3.90734e-06 0.0486531 8.56003e-07 272.939 
-0.35 -0.23 -1.28353 1.84314 0.0488435 0.0482968 2.21558e-05 0.0486033 8.55374e-07 272.86 
-0.37 -0.21 -1.02175 2.07609 0.0488154 0.0482941 7.5356e-09 0.0485874 8.54796e-07 272.955 
-0.35 -0.21 -1.20897 2.05977 0.0488308 0.0482973 3.75979e-05 0.0485803 8.54937e-07 272.87 
-0.33 -0.21 -1.44 2.02908 0.0488393 0.048286 4.2273e-05 0.0485738 8.5527e-07 272.727 
-0.37 -0.19 -1.04611 2.18357 0.0488331 0.0482752 -1.05259e-05 0.0485538 8.54478e-07 272.868 
-0.35 -0.19 -1.14218 2.17033 0.0488411 0.0482725 2.3309e-05 0.0485483 8.55053e-07 272.653 
-0.33 -0.19 -1.30977 2.24482 0.0488388 0.0482431 4.13433e-05 0.048546 8.54769e-07 272.731 
-0.37 -0.17 -0.936207 2.36404 0.0488029 0.0482415 -3.29888e-05 0.0485436 8.53845e-07 273.013 
-0.35 -0.17 -1.27452 2.4933 0.0487961 0.0482314 2.62785e-05 0.0485329 8.54144e-07 272.857 
-0.33 -0.17 -1.45737 2.39002 0.048807 0.0482283 4.18437e-05 0.0485092 8.54401e-07 272.642 
-0.37 -0.15 -1.25329 2.52691 0.0487592 0.0481977 -5.65699e-06 0.0484511 8.52536e-07 272.911 
-0.35 -0.15 -1.30299 2.58366 0.0487585 0.0481931 -1.82613e-05 0.0484747 8.54102e-07 272.544 
-0.33 -0.15 -1.45399 2.59951 0.048796 0.0482352 9.8307e-06 0.048499 8.54385e-07 272.59 
-0.37 -0.13 -1.12522 2.64054 0.0487977 0.0481922 -1.58828e-05 0.0484986 8.53506e-07 272.868 
-0.35 -0.13 -1.34005 2.92323 0.0487489 0.0481782 -9.24679e-06 0.0484591 8.53824e-07 272.544 
-0.33 -0.13 -1.59434 2.71467 0.0487406 0.0481859 3.99553e-05 0.0484516 8.53644e-07 272.56 
-0.37 -0.11 -1.09232 3.02591 0.0487812 0.0481525 -1.36999e-05 0.0484704 8.52636e-07 272.988 
-0.35 -0.11 -1.47313 2.99374 0.048765 0.0481811 2.54614e-05 0.0484544 8.5321e-07 272.714 
-0.33 -0.11 -1.63529 2.97524 0.0487569 0.0481523 1.39579e-05 0.0484335 8.52829e-07 272.718 
-0.35 -0.09 -1.47799 3.42875 0.0487501 0.0481796 1.69629e-05 0.0484795 8.52566e-07 273.062 
-0.49 -0.13 -0.0829977 1.51751 0.0486959 0.0482845 -0.000195638 0.0484733 8.53533e-07 272.717 
-0.47 -0.13 -0.222864 1.97562 0.0487057 0.048226 -0.000188771 0.0484509 8.52755e-07 272.84 
-0.45 -0.13 -0.195367 2.3899 0.0487378 0.0482411 -0.000145211 0.0484673 8.53007e-07 272.852 
-0.49 -0.11 -0.00736329 1.66337 0.0487097 0.0482921 -0.000231264 0.04848 8.52628e-07 273.044 
-0.43 -0.13 -0.383595 2.47784 0.0487369 0.0481273 -0.000133215 0.0484455 8.52225e-07 272.979 
-0.47 -0.11 -0.254698 2.13458 0.0487101 0.0482227 -0.000188714 0.0484701 8.5284e-07 272.921 
-0.41 -0.13 -0.808433 2.60003 0.0487959 0.0482348 -7.95259e-05 0.0484996 8.52906e-07 273.065 
-0.45 -0.11 -0.412265 2.39925 0.048727 0.0481884 -0.00016286 0.0484743 8.52225e-07 273.142 
-0.49 -0.09 -0.178696 1.89684 0.048584 0.0482294 -0.000229557 0.0484005 8.5199e-07 272.801 
-0.39 -0.13 -0.948607 2.91429 0.0488006 0.0482429 -2.30909e-05 0.0485387 8.53753e-07 273.015 
-0.43 -0.11 -0.514344 2.74732 0.0487536 0.0481298 -0.000126898 0.0484597 8.51818e-07 273.189 
-0.47 -0.09 -0.33877 2.39832 0.0486279 0.0482172 -0.000221439 0.0484334 8.52228e-07 272.91 
-0.41 -0.11 -0.514211 2.86119 0.0487433 0.0481782 -0.000107127 0.0484716 8.52593e-07 273.008 
-0.45 -0.09 -0.621006 2.57195 0.04866 0.0481531 -0.000191928 0.0483838 8.52124e-07 272.664 
-0.39 -0.11 -0.999277 3.08742 0.0487531 0.0481769 -6.49989e-05 0.0485026 8.52503e-07 273.212 
-0.43 -0.09 -0.810936 2.83018 0.0486711 0.0480835 -0.000158791 0.04841 8.51982e-07 272.857 
-0.41 -0.09 -0.974177 3.01125 0.0487166 0.0481272 -0.000120026 0.0484468 8.52686e-07 272.839 
-0.39 -0.09 -0.881172 3.23405 0.0487149 0.0481557 -4.63471e-05 0.04843 8.52357e-07 272.85 
-0.37 -0.09 -1.16405 3.27705 0.0487023 0.0481021 -2.71182e-05 0.0484132 8.51761e-07 272.946 
-0.35 -0.03 -1.71546 3.90577 0.0485741 0.048029 -2.7399e-05 0.0483008 8.50341e-07 272.767 
-0.37 -0.07 -1.35893 3.53502 0.0487216 0.0480859 -3.81824e-05 0.0484261 8.52297e-07 272.846 
-0.41 -0.05 -1.01008 3.40126 0.04862 0.0480374 -0.000141165 0.0483408 8.50845e-07 272.831 
-0.45 -0.03 -0.517884 3.37493 0.048547 0.0480076 -0.000257925 0.0483048 8.50284e-07 272.808 
-0.35 -0.07 -1.57452 3.68862 0.0487204 0.0481015 -3.15983e-06 0.0484126 8.52132e-07 272.824 
-0.39 -0.05 -1.25714 3.55987 0.0486045 0.0480709 -0.000104242 0.0483351 8.50538e-07 272.897 
-0.43 -0.03 -0.708713 3.7234 0.0485303 0.0480076 -0.00020667 0.0482935 8.50149e-07 272.787 
-0.33 -0.07 -1.71537 3.51775 0.0487553 0.0481339 2.83781e-05 0.0484566 8.52551e-07 272.937 
-0.37 -0.05 -1.45527 3.93549 0.048602 0.0480392 -9.15367e-05 0.0483281 8.50256e-07 272.949 
-0.41 -0.03 -0.941541 3.60291 0.0485813 0.0480186 -0.000139229 0.0482904 8.49749e-07 272.898 
-0.35 -0.05 -1.57098 3.61609 0.0486018 0.0480558 -3.7635e-05 0.0483317 8.50697e-07 272.827 
-0.39 -0.03 -1.29953 3.90614 0.0485958 0.0480467 -0.000115031 0.0483262 8.4957e-07 273.158 
-0.33 -0.05 -1.81588 3.79945 0.0486105 0.0480541 2.25671e-05 0.048355 8.51695e-07 272.639 
-0.37 -0.03 -1.56996 3.94049 0.0486144 0.0479654 -3.38466e-05 0.0482649 8.49862e-07 272.717 
-0.33 -0.03 -1.99205 4.11881 0.0485797 0.0480082 2.24202e-05 0.0483179 8.50052e-07 272.956 
-0.49 -0.07 0.0400657 2.05943 0.0485744 0.0482082 -0.000244579 0.0484005 8.51678e-07 272.901 
-0.47 -0.07 -0.187633 2.55118 0.0485819 0.0481882 -0.000230695 0.048426 8.51904e-07 272.972 
-0.45 -0.07 -0.383621 2.89197 0.0486204 0.0480943 -0.000204357 0.0483603 8.51447e-07 272.748 
-0.49 -0.05 -0.107887 2.14853 0.0484801 0.0481609 -0.000297969 0.0482947 8.4958e-07 272.977 
-0.43 -0.07 -0.73308 3.10434 0.0485984 0.0481096 -0.00016125 0.0483806 8.51112e-07 272.97 
-0.47 -0.05 -0.283838 2.84167 0.0485462 0.0481856 -0.000281577 0.0483761 8.51117e-07 272.943 
-0.41 -0.07 -0.92588 3.15958 0.0485824 0.0480703 -0.000131144 0.0483276 8.50536e-07 272.856 
-0.45 -0.05 -0.436523 3.0662 0.0485515 0.0480128 -0.000223591 0.0482933 8.49973e-07 272.842 
-0.49 -0.03 -0.0192662 2.3352 0.0485115 0.0481428 -0.00032954 0.0483203 8.50196e-07 272.924 
-0.39 -0.07 -1.1176 3.37628 0.0486444 0.0480914 -0.000105308 0.0483824 8.51665e-07 272.803 
-0.43 -0.05 -0.681413 3.39441 0.0486433 0.0480956 -0.00016696 0.0483869 8.51467e-07 272.892 
-0.47 -0.03 -0.258878 2.90723 0.0485487 0.0481221 -0.000267734 0.0483343 8.50553e-07 272.888 
-0.27 -0.07 -2.52089 3.49947 0.0486543 0.0481871 0.000102127 0.0484443 8.52514e-07 272.88 
-0.31 -0.05 -2.11044 3.8344 0.0486351 0.0480736 7.74016e-05 0.048386 8.51607e-07 272.842 
-0.27 -0.09 -2.33306 3.36162 0.0487376 0.0481883 0.000102473 0.0484752 8.53252e-07 272.818 
-0.31 -0.07 -2.02719 3.37652 0.0487313 0.0481092 6.80469e-05 0.0484402 8.52829e-07 272.756 
-0.29 -0.07 -2.43003 3.7124 0.0486802 0.0481442 0.000114623 0.0484105 8.51696e-07 272.951 
-0.25 -0.07 -2.56058 2.98558 0.0486685 0.0481965 0.000112574 0.0484454 8.52339e-07 272.942 
-0.29 -0.05 -2.1767 3.70692 0.048675 0.048158 0.000100589 0.0484063 8.51853e-07 272.878 
-0.27 -0.05 -2.38289 3.56385 0.0486756 0.048181 8.92692e-05 0.0484169 8.51418e-07 273.077 
-0.31 -0.03 -2.19026 3.96066 0.0485882 0.0480609 1.87476e-05 0.0483123 8.5006e-07 272.922 
-0.25 -0.05 -2.49007 3.19254 0.0486961 0.0481774 0.000100348 0.0484328 8.51976e-07 272.987 
-0.29 -0.03 -2.27539 3.83726 0.0485973 0.0480964 4.65636e-05 0.0483533 8.50823e-07 272.909 
-0.27 -0.03 -2.43153 3.67363 0.0486443 0.0481837 9.1803e-05 0.0484277 8.5262e-07 272.752 
-0.25 -0.03 -2.32046 3.16863 0.0486368 0.0481782 9.55514e-05 0.0484165 8.52426e-07 272.752 
-0.27 -0.01 -2.22561 3.76436 0.0485387 0.0481386 8.10083e-05 0.0483802 8.51209e-07 272.937 
-0.31 -0.25 -1.7403 1.79945 0.0488444 0.0483185 0.000110662 0.0485825 8.5481e-07 272.923 
-0.29 -0.25 -1.92618 1.71203 0.0488748 0.048324 8.99067e-05 0.048596 8.54973e-07 272.947 
-0.27 -0.25 -1.9424 1.70063 0.0488728 0.0483329 9.49791e-05 0.0486114 8.54797e-07 273.09 
-0.29 -0.11 -2.04237 2.98496 0.0487783 0.048189 7.31679e-05 0.048515 8.5397e-07 272.812 
-0.33 -0.09 -1.82986 3.19385 0.0487581 0.0481561 4.67994e-05 0.0484272 8.52463e-07 272.8 
-0.27 -0.11 -2.25274 3.06839 0.048776 0.0482109 9.84911e-05 0.04849 8.53498e-07 272.823 
-0.31 -0.09 -1.96126 3.34236 0.0487035 0.0481264 6.13746e-05 0.0484262 8.5156e-07 273.083 
-0.29 -0.09 -2.09799 3.32392 0.0487185 0.0481675 6.28693e-05 0.0484481 8.52814e-07 272.805 
-0.33 -0.23 -1.50878 1.74413 0.0488516 0.0483292 9.43263e-05 0.0486284 8.55902e-07 272.832 
-0.31 -0.23 -1.52688 2.08682 0.0488337 0.0482839 5.0077e-05 0.0485583 8.54461e-07 272.899 
-0.29 -0.23 -1.7263 1.78411 0.0488426 0.0483635 9.61975e-05 0.0486274 8.5521e-07 273.047 
-0.27 -0.23 -1.93271 1.67994 0.0488382 0.0483028 6.60804e-05 0.0485651 8.54387e-07 272.96 
-0.31 -0.21 -1.63164 2.05295 0.0488636 0.0482917 6.32406e-05 0.0485996 8.56046e-07 272.625 
-0.29 -0.21 -1.70676 1.95174 0.0488852 0.0483359 6.34982e-05 0.0486308 8.55769e-07 272.888 
-0.27 -0.21 -1.70275 1.85865 0.0488684 0.0483115 0.000136791 0.0485964 8.55437e-07 272.801 
-0.31 -0.19 -1.51092 2.2458 0.0488495 0.048308 5.541e-05 0.0485483 8.54744e-07 272.752 
-0.25 -0.21 -1.99134 1.7647 0.048874 0.0482415 8.82818e-05 0.0485909 8.55127e-07 272.869 
-0.29 -0.19 -1.73624 2.08358 0.0488298 0.0482807 9.92945e-05 0.048543 8.55002e-07 272.64 
-0.27 -0.19 -1.95618 2.00286 0.0488318 0.0482877 0.000117699 0.0485513 8.54056e-07 272.989 
-0.31 -0.17 -1.58827 2.26727 0.0487859 0.048271 2.53519e-05 0.0485193 8.54161e-07 272.775 
-0.25 -0.19 -2.17692 2.11748 0.0488319 0.0482721 0.000120408 0.0485455 8.54612e-07 272.779 
-0.29 -0.17 -1.74841 2.37903 0.0488195 0.0482799 9.99801e-05 0.0485468 8.54076e-07 272.957 
-0.27 -0.17 -2.12413 2.46304 0.0488039 0.0482715 0.00011452 0.0485552 8.54423e-07 272.893 
-0.31 -0.15 -1.65754 2.58742 0.0487669 0.0482152 5.9699e-05 0.048478 8.53448e-07 272.771 
-0.25 -0.17 -2.51133 2.27409 0.0488301 0.0482792 0.000115674 0.0485411 8.53705e-07 273.044 
-0.29 -0.15 -1.95716 2.63747 0.0487427 0.0481982 0.000112881 0.0484609 8.53148e-07 272.77 
-0.27 -0.15 -2.21297 2.68856 0.0487676 0.0483196 0.000103922 0.0485617 8.54375e-07 272.945 
-0.31 -0.13 -1.87785 2.92389 0.048757 0.0481947 6.79094e-05 0.0484698 8.53304e-07 272.771 
-0.25 -0.15 -2.28648 2.51753 0.0487628 0.0482725 0.000114543 0.0485074 8.53602e-07 272.887 
-0.29 -0.13 -2.17979 2.91192 0.0487749 0.0481826 6.70871e-05 0.0484997 8.54239e-07 272.64 
-0.27 -0.13 -2.46523 2.78629 0.0487631 0.0482601 9.34027e-05 0.0485173 8.5414e-07 272.771 
-0.31 -0.11 -1.85742 3.39092 0.0487959 0.0481722 5.15142e-05 0.0484963 8.52809e-07 273.078 
-0.25 -0.13 -2.48823 2.59952 0.048797 0.0482534 0.000131391 0.0485058 8.53931e-07 272.773 
-0.25 -0.25 -1.95824 1.46985 0.0488569 0.0483376 0.00012074 0.0486087 8.55475e-07 272.858 
-0.25 -0.23 -2.04055 1.67874 0.0488188 0.0482867 0.00012362 0.048548 8.54522e-07 272.821 
-0.25 -0.11 -2.48471 2.72997 0.0487749 0.0482365 9.55317e-05 0.0484874 8.52934e-07 272.988 
-0.25 -0.09 -2.64395 2.82282 0.0487411 0.0482575 0.000131227 0.0484969 8.53096e-07 272.99 
-0.25 -0.01 -2.64163 3.41632 0.0485111 0.0481489 0.000133362 0.0483285 8.51154e-07 272.663 
-0.23 -0.49 -0.821344 0.0353164 0.0486631 0.0485469 0.000120096 0.0485988 8.54909e-07 272.983 
-0.21 -0.49 -0.844324 -0.0422902 0.0486942 0.0485099 0.000144452 0.0486082 8.53977e-07 273.334 
-0.19 -0.49 -0.89872 0.0819673 0.0487296 0.0485942 0.000185227 0.0486698 8.55702e-07 273.129 
-0.23 -0.47 -0.856176 0.0940644 0.0487293 0.0485286 0.000100737 0.0486358 8.55843e-07 272.893 
-0.17 -0.49 -1.06241 0.0957802 0.0487324 0.048615 0.000144425 0.0486748 8.55838e-07 273.113 
-0.21 -0.47 -1.00603 0.122312 0.0487289 0.0484892 0.000130157 0.0486083 8.55435e-07 272.869 
-0.15 -0.49 -1.04389 0.00239689 0.0486958 0.0486268 0.00018536 0.048639 8.55722e-07 272.95 