ITEM: TIMESTEP
1002000
ITEM: NUMBER OF CELLS
2500
ITEM: BOX BOUNDS ss ss pp
-0.5 0.5
-0.5 0.5
-0.5 0.5
ITEM: CELLS xc yc f_U[*] f_V[*] f_Tau[1] f_Tau[2] f_Tau[3] f_Press[*] f_Mrho[*] f_Ttra[*] 
-0.49 -0.49 -0.0387337 -0.00452213 0.0487231 0.0485922 -3.2631e-05 0.0487084 8.56107e-07 273.216 
-0.47 -0.49 -0.0240252 0.0308029 0.0486792 0.0485886 1.27104e-05 0.0486342 8.55144e-07 273.107 
-0.45 -0.49 -0.0519799 -0.0028 0.0486774 0.0485783 3.77773e-05 0.0486277 8.55953e-07 272.812 
-0.49 -0.47 0.0468149 -0.0878286 0.0486843 0.0485833 -3.32268e-06 0.0486309 8.5481e-07 273.195 
-0.43 -0.49 -0.136151 0.0690537 0.0486573 0.0485317 -6.1046e-06 0.0485779 8.55165e-07 272.784 
-0.47 -0.47 0.0698854 0.048904 0.0487051 0.0485826 -5.59812e-06 0.0486545 8.54766e-07 273.342 
-0.41 -0.49 -0.255761 0.00641785 0.0486752 0.0485371 3.76729e-05 0.0486045 8.54939e-07 273.006 
-0.45 -0.47 -0.00810621 0.177324 0.0487056 0.048561 3.25215e-05 0.0486228 8.5523e-07 273.016 
-0.49 -0.45 -0.0183538 -0.0801385 0.0487215 0.0486003 -3.05113e-05 0.0486553 8.55226e-07 273.199 
-0.39 -0.49 -0.267768 0.0127543 0.0486829 0.0484726 6.68151e-06 0.0485718 8.54531e-07 272.952 
-0.43 -0.47 -0.0664874 0.0525938 0.0487007 0.0485465 1.80003e-05 0.0486225 8.54992e-07 273.09 
-0.47 -0.45 -0.119654 0.16684 0.0487034 0.0485399 1.07686e-05 0.0486234 8.5505e-07 273.076 
-0.37 -0.49 -0.331551 0.0551042 0.0487077 0.0485293 2.50792e-05 0.0486231 8.55794e-07 272.838 
-0.41 -0.47 -0.229199 0.26211 0.048686 0.0485014 3.16286e-05 0.0486074 8.55411e-07 272.872 
-0.45 -0.45 -0.225613 0.126127 0.04874 0.0485631 5.32228e-06 0.0486572 8.56091e-07 272.934 
-0.49 -0.43 -0.0947831 0.0635787 0.048715 0.0485688 -2.44291e-05 0.0486502 8.56475e-07 272.772 
-0.35 -0.49 -0.38068 0.0434496 0.0486968 0.0485291 7.33242e-05 0.0485989 8.55204e-07 272.89 
-0.39 -0.47 -0.476881 0.155179 0.0486891 0.0484942 3.23474e-05 0.0486005 8.55153e-07 272.915 
-0.43 -0.45 -0.32092 0.258008 0.0487711 0.0485496 3.72837e-05 0.0486402 8.54734e-07 273.272 
-0.47 -0.43 -0.174412 0.159776 0.0487314 0.048535 -1.14415e-05 0.0486624 8.56366e-07 272.875 
-0.37 -0.47 -0.536343 0.0558149 0.048635 0.0484673 3.15428e-05 0.0485463 8.53926e-07 273.002 
-0.41 -0.45 -0.27024 0.309592 0.0487198 0.048477 1.845e-05 0.0485942 8.54796e-07 272.993 
-0.45 -0.43 -0.266696 0.339181 0.0487383 0.04857 -1.8933e-05 0.0486489 8.55854e-07 272.963 
-0.49 -0.41 0.00408773 0.297751 0.0487463 0.0485312 -8.23763e-06 0.0486041 8.55725e-07 272.753 
-0.35 -0.47 -0.684241 0.060866 0.0486874 0.0485098 8.12695e-05 0.0486102 8.55129e-07 272.977 
-0.39 -0.45 -0.360785 0.241118 0.0487399 0.0484756 6.14725e-05 0.0485979 8.55043e-07 272.935 
-0.43 -0.43 -0.316012 0.318452 0.0487648 0.0484929 1.22896e-05 0.0486366 8.55562e-07 272.987 
-0.47 -0.41 -0.312434 0.295699 0.0487624 0.0485836 -3.7525e-05 0.0486874 8.5686e-07 272.858 
-0.37 -0.45 -0.625264 0.319549 0.0487039 0.0485075 5.21807e-05 0.048598 8.54964e-07 272.961 
-0.41 -0.43 -0.501542 0.303247 0.0488108 0.0485039 3.41913e-05 0.0486548 8.55982e-07 272.955 
-0.45 -0.41 -0.364271 0.293764 0.0487772 0.0485242 -9.29721e-06 0.0486675 8.56278e-07 272.932 
-0.49 -0.39 -0.0718741 0.350611 0.0487535 0.0485425 -1.71433e-05 0.0486328 8.56422e-07 272.692 
-0.35 -0.45 -0.743856 0.0978371 0.0486696 0.0484352 4.7457e-05 0.0485195 8.54564e-07 272.648 
-0.39 -0.43 -0.471408 0.37155 0.0487711 0.0484201 3.62048e-05 0.0485728 8.5442e-07 272.993 
-0.43 -0.41 -0.451328 0.438731 0.0487405 0.0485359 -4.56123e-06 0.0486394 8.55325e-07 273.078 
-0.47 -0.39 -0.0117769 0.413758 0.0487646 0.0485881 -4.86615e-05 0.0486621 8.56953e-07 272.687 
-0.37 -0.43 -0.58571 0.428745 0.0488129 0.0485028 7.96394e-05 0.0486325 8.55933e-07 272.846 
-0.41 -0.41 -0.468829 0.331611 0.0487151 0.0484303 2.80682e-05 0.0485453 8.54192e-07 272.911 
-0.45 -0.39 -0.0962836 0.519885 0.048754 0.0484474 -1.13779e-05 0.0486173 8.55971e-07 272.748 
-0.35 -0.43 -0.67626 0.210639 0.0488206 0.0484894 3.06964e-05 0.0486253 8.56528e-07 272.616 
-0.39 -0.41 -0.402848 0.318141 0.0487668 0.0484423 2.72344e-05 0.048586 8.55289e-07 272.79 
-0.43 -0.39 -0.240309 0.462773 0.0487979 0.0485553 2.54173e-05 0.0486786 8.56309e-07 272.984 
-0.37 -0.41 -0.382314 0.572097 0.0487733 0.0484747 4.09209e-05 0.0486004 8.55349e-07 272.852 
-0.41 -0.39 -0.322249 0.45662 0.0487549 0.0484184 6.60029e-07 0.0485976 8.54936e-07 272.968 
-0.35 -0.41 -0.737969 0.459196 0.0487576 0.0485003 3.45606e-05 0.0485782 8.55467e-07 272.689 
-0.39 -0.39 -0.565335 0.317939 0.0487749 0.0484437 2.08878e-05 0.0486159 8.55758e-07 272.808 
-0.37 -0.39 -0.661664 0.589786 0.0487894 0.0484525 3.46739e-05 0.0486042 8.54993e-07 272.987 
-0.35 -0.39 -0.62385 0.700527 0.0488047 0.0485061 7.89205e-05 0.0486258 8.55671e-07 272.892 
-0.37 -0.37 -0.82039 0.530663 0.0488342 0.048441 1.44861e-05 0.048623 8.55041e-07 273.077 
-0.33 -0.49 -0.537016 0.0327476 0.0486629 0.0484775 9.92536e-05 0.0485851 8.5471e-07 272.97 
-0.33 -0.47 -0.592926 0.184076 0.0486574 0.0484855 9.43379e-05 0.0485769 8.54863e-07 272.875 
-0.33 -0.43 -0.754897 0.0899025 0.0487648 0.0484812 4.6458e-05 0.0485908 8.55768e-07 272.664 
-0.49 -0.37 -0.0262772 0.343651 0.0487671 0.0485794 -5.2274e-05 0.048665 8.56245e-07 272.928 
-0.47 -0.37 -0.101449 0.530364 0.0487993 0.0485627 -4.16613e-05 0.0486865 8.56428e-07 272.991 
-0.45 -0.37 -0.368819 0.606512 0.0487772 0.0484567 -1.57878e-05 0.048629 8.55104e-07 273.091 
-0.49 -0.35 0.0145387 0.51867 0.0488394 0.0485992 -5.22193e-05 0.0486998 8.57218e-07 272.814 
-0.43 -0.37 -0.55611 0.652753 0.0487891 0.0485068 1.6349e-06 0.0486594 8.55245e-07 273.216 
-0.47 -0.35 -0.167808 0.659238 0.0488246 0.0485212 -1.97625e-05 0.0486864 8.5606e-07 273.108 
-0.45 -0.35 -0.235023 0.809446 0.0487863 0.0484359 8.89816e-06 0.0486552 8.55236e-07 273.196 
-0.49 -0.33 -0.120188 0.527693 0.0487824 0.0485113 -4.05211e-05 0.0486645 8.5668e-07 272.787 
-0.39 -0.37 -0.750676 0.530772 0.0487907 0.0484 9.03227e-07 0.0485828 8.55401e-07 272.736 
-0.43 -0.35 -0.14518 0.536086 0.0487946 0.0484873 -4.11438e-05 0.0486568 8.55559e-07 273.102 
-0.47 -0.33 -0.0932085 0.766343 0.0488081 0.0485086 -1.08935e-05 0.0486339 8.55625e-07 272.952 
-0.41 -0.35 -0.438591 0.801449 0.0487862 0.0484373 3.9961e-05 0.0486058 8.55264e-07 272.909 
-0.45 -0.33 -0.127661 0.843085 0.0488311 0.0484501 -2.81818e-05 0.0486251 8.5525e-07 273.022 
-0.49 -0.31 -0.0268269 0.658869 0.0487075 0.0484781 -8.22002e-05 0.0485755 8.54822e-07 272.88 
-0.39 -0.35 -0.653447 0.71543 0.0488227 0.0484375 -9.9592e-06 0.0485993 8.54979e-07 272.963 
-0.43 -0.33 -0.407924 0.808761 0.0488464 0.0484684 1.34092e-05 0.0486348 8.5494e-07 273.176 
-0.47 -0.31 -0.173847 0.883235 0.0487375 0.0484764 -5.32263e-05 0.0485898 8.54842e-07 272.954 
-0.37 -0.35 -0.919297 0.772082 0.048759 0.0483865 4.15939e-05 0.0485632 8.54779e-07 272.825 
-0.41 -0.33 -0.540531 0.864723 0.048832 0.0484437 -9.15023e-06 0.0486304 8.55268e-07 273.046 
-0.45 -0.31 -0.182884 0.847369 0.0487989 0.0484763 -5.88227e-05 0.0486219 8.55378e-07 272.963 
-0.49 -0.29 -0.0468896 0.844708 0.048744 0.0484636 -9.31905e-05 0.0485917 8.55385e-07 272.791 
-0.35 -0.35 -1.09758 0.841383 0.0487444 0.0483966 5.65596e-05 0.0485861 8.54963e-07 272.895 
-0.39 -0.33 -0.662571 1.03386 0.0488135 0.0484099 3.42903e-05 0.048587 8.55288e-07 272.796 
-0.43 -0.31 -0.276905 1.03087 0.0487962 0.0484365 -4.86165e-05 0.0486077 8.55647e-07 272.798 
-0.47 -0.29 -0.168746 0.861191 0.0487581 0.0484755 -8.2938e-05 0.0486299 8.55945e-07 272.827 
-0.37 -0.33 -0.743058 1.04644 0.048814 0.0483781 5.27601e-05 0.0485912 8.54656e-07 273.021 
-0.41 -0.31 -0.638505 1.00755 0.0488462 0.0484034 3.08582e-05 0.0486386 8.56026e-07 272.85 
-0.45 -0.29 -0.206101 0.935799 0.0487669 0.0484565 -6.30151e-05 0.0486109 8.55431e-07 272.885 
-0.49 -0.27 -0.141972 0.973483 0.0488242 0.0484509 -9.10155e-05 0.0486565 8.56327e-07 272.855 
-0.35 -0.33 -0.902571 0.825643 0.0488402 0.0484219 1.61806e-05 0.0486473 8.55482e-07 273.073 
-0.39 -0.31 -0.57295 1.05837 0.0488606 0.0484118 3.81614e-05 0.0486455 8.55574e-07 273.033 
-0.43 -0.29 -0.331273 1.22979 0.0487698 0.0483839 -5.23668e-05 0.0485589 8.55295e-07 272.636 
-0.47 -0.27 -0.16619 0.937228 0.0488346 0.0484559 -8.87602e-05 0.0486735 8.56371e-07 272.936 
-0.37 -0.31 -0.660203 1.08378 0.0488637 0.048397 1.26793e-05 0.0486287 8.55206e-07 273.056 
-0.41 -0.29 -0.276736 1.09826 0.0488113 0.0483321 -2.57084e-05 0.0485721 8.54584e-07 272.937 
-0.45 -0.27 -0.288411 1.06393 0.0488399 0.0484123 -6.66059e-05 0.0486069 8.56253e-07 272.601 
-0.35 -0.31 -0.860919 1.18724 0.0488591 0.0484011 7.20165e-05 0.0486312 8.55308e-07 273.038 
-0.39 -0.29 -0.577091 1.26661 0.0488409 0.0484175 2.09851e-05 0.0486181 8.54859e-07 273.108 
-0.43 -0.27 -0.477597 1.2772 0.0488307 0.0483879 -2.57115e-05 0.0486024 8.55503e-07 272.814 
-0.37 -0.29 -0.774193 1.0554 0.0488311 0.0483877 4.59094e-05 0.0486296 8.54591e-07 273.258 
-0.41 -0.27 -0.60608 1.31492 0.0487951 0.0483157 -3.35371e-05 0.0485258 8.54917e-07 272.571 
-0.35 -0.29 -0.995737 1.45453 0.0488337 0.0483779 5.96329e-05 0.0485837 8.54701e-07 272.965 
-0.39 -0.27 -0.883779 1.45042 0.0487913 0.0483719 -5.76939e-06 0.0486013 8.54928e-07 272.991 
-0.33 -0.29 -1.10151 1.40022 0.0488586 0.0484016 4.84863e-05 0.0486237 8.5501e-07 273.091 
-0.37 -0.27 -1.09564 1.32064 0.0488373 0.048364 2.30222e-05 0.0486079 8.5479e-07 273.072 
-0.35 -0.27 -1.19567 1.5339 0.0488491 0.0483829 3.41282e-05 0.048602 8.55899e-07 272.685 
-0.33 -0.27 -1.3229 1.48278 0.0488404 0.0483642 8.30306e-05 0.0485661 8.54665e-07 272.877 
-0.41 -0.37 -0.57356 0.584375 0.0488357 0.0484591 1.78997e-05 0.0486507 8.55958e-07 272.94 
-0.35 -0.37 -0.849175 0.886339 0.0488322 0.0484562 5.66305e-05 0.0486272 8.55695e-07 272.892 
-0.33 -0.37 -0.869941 0.520295 0.048807 0.0484444 6.40235e-05 0.0486139 8.55191e-07 272.978 
-0.33 -0.35 -1.23625 0.800858 0.0488087 0.0484342 8.40078e-05 0.0486367 8.55419e-07 273.033 
-0.33 -0.31 -1.22912 1.02741 0.0488363 0.0483724 6.32442e-05 0.0486051 8.54978e-07 272.997 
-0.35 -0.25 -1.28878 1.60511 0.0488019 0.0483489 4.25084e-05 0.0485909 8.55272e-07 272.823 
-0.31 -0.49 -0.552381 0.00832283 0.0486798 0.048551 8.7975e-05 0.0486407 8.55229e-07 273.116 
-0.29 -0.49 -0.622399 0.0699341 0.0486613 0.0484847 9.26584e-05 0.0485934 8.54747e-07 273.005 
-0.27 -0.49 -0.73556 -0.0286829 0.0486501 0.048463 0.000127743 0.0485594 8.54985e-07 272.738 
-0.31 -0.47 -0.74326 -0.0177768 0.0486894 0.0485415 9.10897e-05 0.0486285 8.54397e-07 273.314 
-0.29 -0.47 -0.666363 0.0952622 0.0486935 0.048434 0.000123953 0.0485842 8.5461e-07 272.997 
-0.27 -0.47 -0.606731 0.0336061 0.0486967 0.0484661 0.000108587 0.0485624 8.54515e-07 272.904 
-0.31 -0.45 -0.595701 0.184741 0.04875 0.048498 8.15278e-05 0.0486142 8.55495e-07 272.883 
-0.29 -0.45 -0.729133 0.0807162 0.0487367 0.0484475 0.000127988 0.0486015 8.54656e-07 273.079 
-0.27 -0.45 -1.03458 0.300102 0.0487412 0.0484761 0.000120719 0.0485828 8.54869e-07 272.906 
-0.31 -0.43 -1.05029 0.195194 0.0487548 0.0484315 9.02824e-05 0.0485949 8.55538e-07 272.761 
-0.29 -0.43 -1.22762 0.289317 0.0487868 0.048445 0.000107533 0.0486134 8.55375e-07 272.917 
-0.27 -0.43 -1.16954 0.43178 0.0487953 0.048489 0.000117432 0.0486242 8.54893e-07 273.131 
-0.31 -0.41 -1.10501 0.363559 0.0487791 0.0483995 0.000103802 0.0486 8.54932e-07 272.983 
-0.25 -0.43 -1.21507 0.262562 0.0487467 0.0484772 0.000132042 0.0486132 8.5394e-07 273.374 
-0.29 -0.41 -1.18628 0.35852 0.0487738 0.0484472 9.5271e-05 0.0486211 8.55341e-07 272.971 
-0.27 -0.41 -1.31511 0.364684 0.0487628 0.0484768 0.000140191 0.0486172 8.55544e-07 272.884 
-0.31 -0.39 -0.977949 0.511161 0.0487796 0.0483861 8.63877e-05 0.0485742 8.54379e-07 273.015 
-0.25 -0.41 -1.30783 0.3446 0.0487682 0.0484828 0.000116184 0.0486391 8.55223e-07 273.109 
-0.29 -0.39 -1.08052 0.347317 0.0488113 0.0483956 0.000101521 0.0486093 8.55402e-07 272.885 
-0.27 -0.39 -1.24356 0.680555 0.0488393 0.0484726 0.000136014 0.0487003 8.5637e-07 273.087 
-0.31 -0.37 -1.10479 0.660475 0.0487878 0.0483735 8.40812e-05 0.0485878 8.54843e-07 272.942 
-0.25 -0.39 -1.51513 0.530137 0.048829 0.048507 0.000151563 0.0486867 8.55946e-07 273.145 
-0.29 -0.37 -1.29653 0.608219 0.0487864 0.0483746 7.98051e-05 0.0485809 8.5545e-07 272.71 
-0.27 -0.37 -1.42849 0.71266 0.0488286 0.0484119 8.81536e-05 0.0486288 8.55305e-07 273.025 
-0.31 -0.35 -1.30442 0.679354 0.0488506 0.0484105 5.64963e-05 0.048645 8.55724e-07 272.982 
-0.29 -0.35 -1.3031 0.81635 0.0488479 0.048362 6.76273e-05 0.0486239 8.55697e-07 272.873 
-0.27 -0.35 -1.5053 0.926122 0.0488474 0.0484106 7.7992e-05 0.0486245 8.55565e-07 272.918 
-0.31 -0.33 -1.16736 0.897817 0.0488225 0.0483916 5.62185e-05 0.0486051 8.55436e-07 272.851 
-0.29 -0.33 -1.5724 1.03508 0.0488095 0.0483462 7.23791e-05 0.0485813 8.55238e-07 272.78 
-0.27 -0.33 -1.62174 0.92649 0.0488051 0.0483927 0.000108703 0.0485839 8.55111e-07 272.835 
-0.31 -0.31 -1.3191 1.02069 0.0488362 0.048371 7.39439e-05 0.0486119 8.54861e-07 273.072 
-0.29 -0.31 -1.4114 1.24556 0.0488355 0.0483562 8.43411e-05 0.0486219 8.5519e-07 273.023 
-0.27 -0.31 -1.72846 1.12492 0.0488156 0.0483564 8.44532e-05 0.048577 8.54255e-07 273.07 
-0.31 -0.29 -1.42785 1.25857 0.0488222 0.0483175 5.44245e-05 0.0485691 8.54069e-07 273.085 
-0.25 -0.31 -1.87702 1.19876 0.048805 0.0484288 0.000123529 0.0486315 8.54805e-07 273.2 
-0.29 -0.29 -1.77372 1.35699 0.0488244 0.0483594 7.59968e-05 0.0485994 8.54247e-07 273.198 
-0.27 -0.29 -1.78415 1.29007 0.0488638 0.0483472 0.000118745 0.0485856 8.54349e-07 273.088 
-0.31 -0.27 -1.51839 1.55535 0.0488279 0.0483494 8.10793e-05 0.0486045 8.55144e-07 272.94 
-0.25 -0.29 -1.95054 1.24984 0.0488697 0.0484155 0.000100501 0.0486411 8.55175e-07 273.136 
-0.29 -0.27 -1.56568 1.59957 0.048789 0.0483102 0.000116893 0.04855 8.53999e-07 273 
-0.27 -0.27 -1.8873 1.54522 0.048764 0.0483362 7.83449e-05 0.0485538 8.53628e-07 273.14 
-0.25 -0.27 -2.12631 1.37792 0.0487704 0.0483439 0.000130844 0.0485746 8.54672e-07 272.923 
-0.33 -0.45 -0.732046 0.043791 0.0487563 0.0485158 4.78501e-05 0.0486071 8.55719e-07 272.771 
-0.33 -0.41 -1.09473 0.333846 0.0488115 0.0484594 7.70475e-05 0.0485865 8.5556e-07 272.707 
-0.33 -0.39 -0.830256 0.488214 0.0487642 0.0484162 6.80298e-05 0.0485751 8.54855e-07 272.867 
-0.33 -0.33 -0.964605 0.908151 0.0488147 0.0483928 3.39877e-05 0.0485958 8.54532e-07 273.087 
-0.25 -0.49 -0.728523 0.0300968 0.0485985 0.0484574 0.000118408 0.0485693 8.55191e-07 272.728 
-0.25 -0.47 -0.78642 0.154994 0.0487295 0.0484921 8.70883e-05 0.0486104 8.55377e-07 272.899 
-0.25 -0.45 -1.14046 0.143546 0.0487323 0.0484839 8.64781e-05 0.0486051 8.54816e-07 273.048 
-0.25 -0.37 -1.58829 0.754067 0.0488652 0.0485153 0.000127106 0.0486828 8.55773e-07 273.179 
-0.25 -0.35 -1.7262 0.852257 0.0488452 0.0484381 0.000116931 0.0486453 8.55931e-07 272.918 
-0.25 -0.33 -1.67422 1.12342 0.048782 0.0484424 9.19559e-05 0.0486315 8.55289e-07 273.045 
-0.49 -0.25 -0.00632801 1.1982 0.0487764 0.0484462 -0.000120393 0.0486572 8.55703e-07 273.058 
-0.47 -0.25 -0.318422 1.05198 0.0488157 0.0484176 -8.86402e-05 0.0486179 8.55411e-07 272.93 
-0.45 -0.25 -0.429706 1.17021 0.0487727 0.048399 -5.21278e-05 0.0486254 8.55898e-07 272.817 
-0.49 -0.23 -0.0196495 1.27769 0.0487067 0.0484353 -0.000152653 0.0485716 8.54786e-07 272.87 
-0.47 -0.23 -0.0803368 1.27423 0.0487272 0.0483751 -0.000113936 0.0485354 8.54405e-07 272.788 
-0.45 -0.23 -0.492218 1.3225 0.0487596 0.0483587 -8.57642e-05 0.0486027 8.54928e-07 272.999 
-0.49 -0.21 -0.0852321 1.34979 0.0487332 0.0484387 -0.000163863 0.0485868 8.55118e-07 272.849 
-0.43 -0.23 -0.495032 1.39992 0.0487923 0.048379 -6.00273e-05 0.0486085 8.54687e-07 273.109 
-0.47 -0.21 -0.273191 1.46645 0.0487619 0.0483189 -0.000154752 0.0485605 8.54238e-07 272.983 
-0.41 -0.23 -0.735748 1.8013 0.0488011 0.0482846 -2.87141e-05 0.0485485 8.54313e-07 272.891 
-0.45 -0.21 -0.254026 1.45265 0.0487922 0.0483427 -8.11172e-05 0.0485972 8.54524e-07 273.097 
-0.49 -0.19 -0.0339457 1.46296 0.0488085 0.0484159 -0.000155414 0.048612 8.55383e-07 272.906 
-0.39 -0.23 -0.729174 1.82535 0.0488112 0.0483143 5.28164e-06 0.0485785 8.54033e-07 273.149 
-0.43 -0.21 -0.660122 1.62942 0.0488057 0.0483493 -5.57809e-05 0.048607 8.54778e-07 273.071 
-0.47 -0.19 -0.110612 1.58738 0.048768 0.0482919 -0.000122851 0.0485603 8.54396e-07 272.931 
-0.41 -0.21 -0.775087 1.86829 0.0488113 0.0482636 -3.21731e-05 0.0485766 8.54218e-07 273.079 
-0.45 -0.19 -0.436282 1.76682 0.048769 0.0483082 -9.03847e-05 0.0485666 8.53663e-07 273.2 
-0.49 -0.17 0.0531269 1.37664 0.0487389 0.0483958 -0.000161803 0.0485775 8.55452e-07 272.69 
-0.39 -0.21 -0.954564 2.06697 0.0488226 0.0483133 -3.603e-05 0.0485905 8.54722e-07 272.996 
-0.43 -0.19 -0.650835 1.86232 0.0487861 0.048314 -8.69389e-05 0.0485838 8.54377e-07 273.069 
-0.47 -0.17 -0.166869 2.02918 0.048762 0.0482508 -0.000123356 0.0485113 8.53488e-07 272.946 
-0.41 -0.19 -0.834537 1.98764 0.0488138 0.0482752 -5.11668e-05 0.0485591 8.54137e-07 273.007 
-0.45 -0.17 -0.311156 1.8942 0.0487997 0.0483045 -0.000142311 0.0485845 8.54164e-07 273.141 
-0.49 -0.15 -0.08263 1.48819 0.0486897 0.0483168 -0.000171662 0.0485092 8.53918e-07 272.796 
-0.39 -0.19 -0.96794 2.18309 0.0488146 0.0482789 -4.86274e-05 0.0485507 8.54208e-07 272.937 
-0.43 -0.17 -0.503958 2.07261 0.0487951 0.0482606 -9.3964e-05 0.0485778 8.54268e-07 273.07 
-0.47 -0.15 0.142844 1.91654 0.0487245 0.0482666 -0.00016019 0.0484855 8.53301e-07 272.86 
-0.41 -0.17 -0.655318 2.19281 0.0487712 0.0482537 -5.68047e-05 0.0485305 8.53028e-07 273.2 
-0.45 -0.15 -0.0887777 2.1983 0.0487338 0.0482721 -0.000144912 0.048522 8.53281e-07 273.072 
-0.39 -0.17 -0.835919 2.2607 0.0487695 0.0482552 -4.90913e-05 0.048508 8.53529e-07 272.913 
-0.43 -0.15 -0.302222 2.20203 0.0487322 0.0481816 -6.70381e-05 0.0484763 8.53023e-07 272.897 
-0.41 -0.15 -0.510026 2.40816 0.0487538 0.0482514 -5.36446e-05 0.0485186 8.53317e-07 273.041 
-0.39 -0.15 -0.811332 2.66389 0.0487547 0.0482584 -5.25996e-05 0.0485089 8.54188e-07 272.708 
-0.43 -0.25 -0.395635 1.43937 0.0487718 0.0483931 -2.36652e-05 0.0485776 8.55222e-07 272.764 
-0.41 -0.25 -0.464195 1.54671 0.0488029 0.0482749 -2.6053e-05 0.0485547 8.54775e-07 272.778 
-0.39 -0.25 -0.853125 1.66927 0.0488208 0.0483771 -1.80985e-05 0.0485961 8.55262e-07 272.856 
-0.33 -0.25 -1.44526 1.72903 0.0487916 0.0483303 6.22971e-05 0.0485775 8.54886e-07 272.871 
-0.37 -0.25 -1.11982 1.45722 0.048792 0.048329 1.77162e-05 0.0485847 8.55187e-07 272.815 
-0.37 -0.23 -1.07231 1.9127 0.0488513 0.0483575 3.34338e-06 0.048648 8.55847e-07 272.96 
-0.35 -0.23 -1.29987 1.85626 0.0488428 0.0482998 2.122e-05 0.0486077 8.55378e-07 272.884 
-0.37 -0.21 -1.05023 2.09473 0.0488107 0.0482923 -2.86808e-06 0.0485867 8.54806e-07 272.948 
-0.35 -0.21 -1.22902 2.0919 0.0488215 0.0482956 3.78499e-05 0.0485781 8.54924e-07 272.862 
-0.33 -0.21 -1.43332 2.03366 0.0488282 0.0482779 4.88127e-05 0.048567 8.55222e-07 272.705 
-0.37 -0.19 -1.06579 2.20453 0.0488264 0.0482702 -1.1365e-05 0.0485526 8.54451e-07 272.87 
-0.35 -0.19 -1.16174 2.17127 0.0488392 0.0482705 2.66225e-05 0.048553 8.55107e-07 272.663 
-0.33 -0.19 -1.32378 2.24094 0.0488388 0.0482433 3.91843e-05 0.0485462 8.54588e-07 272.79 
-0.37 -0.17 -0.921165 2.38212 0.0487937 0.048236 -3.12654e-05 0.0485372 8.53834e-07 272.981 
-0.35 -0.17 -1.28264 2.51841 0.0487897 0.0482263 2.65476e-05 0.048529 8.54045e-07 272.867 
-0.33 -0.17 -1.4701 2.37664 0.0488066 0.0482356 4.05563e-05 0.0485101 8.54354e-07 272.662 
-0.37 -0.15 -1.27316 2.54396 0.0487524 0.0481896 -1.09466e-05 0.0484441 8.52568e-07 272.862 
-0.35 -0.15 -1.30663 2.57278 0.0487549 0.0481905 -1.89216e-05 0.0484685 8.54042e-07 272.528 
-0.33 -0.15 -1.46098 2.59896 0.0487966 0.0482417 1.26041e-05 0.0485018 8.54389e-07 272.604 
-0.37 -0.13 -1.11065 2.6649 0.0487952 0.0481827 -1.57219e-05 0.0484906 8.53491e-07 272.828 
-0.35 -0.13 -1.35052 2.92098 0.0487451 0.0481734 -1.60812e-05 0.0484544 8.53674e-07 272.566 
-0.33 -0.13 -1.59344 2.7142 0.0487391 0.0481908 3.52071e-05 0.0484484 8.53627e-07 272.547 
-0.37 -0.11 -1.096 3.0579 0.0487774 0.048149 -1.26251e-05 0.0484662 8.52587e-07 272.98 
-0.35 -0.11 -1.46655 2.98346 0.048763 0.0481795 1.63192e-05 0.0484479 8.53069e-07 272.722 
-0.33 -0.11 -1.64007 2.96988 0.0487567 0.0481476 5.97136e-06 0.0484313 8.52791e-07 272.718 
-0.35 -0.09 -1.45383 3.40814 0.0487601 0.0481816 1.61801e-05 0.0484871 8.52674e-07 273.07 
-0.49 -0.13 -0.0682483 1.54598 0.0486837 0.0482831 -0.000196027 0.0484683 8.53456e-07 272.713 
-0.47 -0.13 -0.222222 1.95794 0.0486991 0.0482338 -0.000190818 0.0484526 8.52814e-07 272.83 
-0.45 -0.13 -0.21493 2.38723 0.0487272 0.0482419 -0.000141093 0.0484616 8.52997e-07 272.823 
-0.49 -0.11 -0.0240236 1.69349 0.0487122 0.0482891 -0.000234669 0.0484781 8.52599e-07 273.043 
-0.43 -0.13 -0.397114 2.46721 0.0487312 0.048127 -0.000129872 0.0484391 8.52144e-07 272.969 
-0.47 -0.11 -0.262699 2.12669 0.0487092 0.048225 -0.000182761 0.048471 8.52875e-07 272.915 
-0.41 -0.13 -0.798609 2.63735 0.0487956 0.0482299 -7.982e-05 0.0485013 8.53047e-07 273.03 
-0.45 -0.11 -0.44547 2.38355 0.0487219 0.0481904 -0.000164025 0.0484714 8.52175e-07 273.141 
-0.49 -0.09 -0.17376 1.90435 0.0485878 0.0482243 -0.000229263 0.0483993 8.51995e-07 272.792 
-0.39 -0.13 -0.928765 2.9394 0.0488007 0.0482332 -2.45013e-05 0.0485334 8.53717e-07 272.996 
-0.43 -0.11 -0.560312 2.75124 0.0487462 0.0481252 -0.000126399 0.0484521 8.51712e-07 273.181 
-0.47 -0.09 -0.36218 2.4157 0.0486342 0.0482127 -0.000220384 0.0484334 8.52295e-07 272.888 
-0.41 -0.11 -0.554463 2.8583 0.0487423 0.0481818 -0.00010344 0.0484686 8.52599e-07 272.99 
-0.45 -0.09 -0.65951 2.56742 0.048662 0.0481618 -0.00018911 0.0483887 8.52122e-07 272.692 
-0.39 -0.11 -1.01021 3.11699 0.0487502 0.0481605 -6.64148e-05 0.0484922 8.5241e-07 273.183 
-0.43 -0.09 -0.835847 2.80247 0.0486758 0.0480844 -0.000159522 0.0484124 8.51957e-07 272.879 
-0.41 -0.09 -0.964574 2.99857 0.0487225 0.0481207 -0.000118253 0.0484476 8.52717e-07 272.833 
-0.39 -0.09 -0.873264 3.25218 0.0487204 0.0481483 -4.65404e-05 0.0484297 8.52304e-07 272.865 
-0.37 -0.09 -1.15866 3.29084 0.0487122 0.0481057 -3.10809e-05 0.0484184 8.51879e-07 272.937 
-0.35 -0.03 -1.74752 3.90186 0.0485745 0.0480234 -2.74035e-05 0.048302 8.50345e-07 272.772 
-0.37 -0.07 -1.34214 3.5384 0.0487151 0.0480789 -4.46964e-05 0.0484188 8.52212e-07 272.833 
-0.41 -0.05 -1.00663 3.34916 0.0486272 0.048031 -0.000137683 0.0483354 8.50779e-07 272.822 
-0.45 -0.03 -0.533172 3.35291 0.0485487 0.0480123 -0.000259531 0.0483092 8.50377e-07 272.803 
-0.35 -0.07 -1.56771 3.66399 0.0487169 0.0481037 2.6498e-06 0.0484119 8.52135e-07 272.819 
-0.39 -0.05 -1.24162 3.55348 0.0486061 0.0480761 -0.000103056 0.0483343 8.50491e-07 272.908 
-0.43 -0.03 -0.72603 3.71623 0.0485335 0.0479905 -0.000202358 0.0482838 8.50047e-07 272.765 
-0.33 -0.07 -1.70854 3.50572 0.0487544 0.0481264 2.90485e-05 0.0484517 8.52587e-07 272.898 
-0.37 -0.05 -1.43735 3.92174 0.0485979 0.0480319 -9.3879e-05 0.0483159 8.50115e-07 272.924 
-0.41 -0.03 -0.950237 3.58813 0.0485864 0.0480208 -0.000140638 0.0482907 8.49825e-07 272.875 
-0.35 -0.05 -1.58043 3.62472 0.0486039 0.0480552 -3.96415e-05 0.0483327 8.50646e-07 272.849 
-0.39 -0.03 -1.31941 3.8809 0.0486034 0.0480494 -0.000118669 0.0483329 8.49732e-07 273.144 
-0.33 -0.05 -1.8063 3.79151 0.048612 0.0480472 2.5349e-05 0.0483512 8.51634e-07 272.637 
-0.37 -0.03 -1.59718 3.96603 0.0486227 0.0479611 -3.60676e-05 0.0482642 8.49877e-07 272.709 
-0.33 -0.03 -1.99507 4.10348 0.0485751 0.0480073 2.16893e-05 0.0483125 8.49944e-07 272.96 
-0.49 -0.07 0.037884 2.05011 0.0485683 0.048208 -0.000247601 0.0484006 8.51634e-07 272.915 
-0.47 -0.07 -0.156111 2.55457 0.0485781 0.0481788 -0.000230778 0.0484235 8.51793e-07 272.993 
-0.45 -0.07 -0.337141 2.90007 0.0486189 0.0481029 -0.000205468 0.0483705 8.51642e-07 272.743 
-0.49 -0.05 -0.108721 2.13338 0.0484852 0.0481685 -0.000299405 0.048305 8.49708e-07 272.994 
-0.43 -0.07 -0.718332 3.07969 0.0485975 0.0481027 -0.000160153 0.0483718 8.50991e-07 272.959 
-0.47 -0.05 -0.272063 2.81325 0.0485507 0.0481782 -0.000279758 0.0483782 8.51192e-07 272.931 
-0.41 -0.07 -0.929979 3.11016 0.0485819 0.0480642 -0.000130351 0.0483246 8.50474e-07 272.859 
-0.45 -0.05 -0.405018 3.08306 0.0485533 0.0480183 -0.000224842 0.048295 8.50093e-07 272.813 
-0.49 -0.03 -0.0308526 2.33082 0.0485027 0.0481387 -0.000331567 0.0483159 8.5016e-07 272.91 
-0.39 -0.07 -1.10886 3.39067 0.0486449 0.0480933 -0.000105764 0.0483852 8.51667e-07 272.818 
-0.43 -0.05 -0.646434 3.39247 0.0486475 0.0480848 -0.000169226 0.0483796 8.5141e-07 272.869 
-0.47 -0.03 -0.27102 2.91436 0.0485415 0.0481203 -0.000265974 0.0483345 8.50593e-07 272.876 
-0.27 -0.07 -2.52407 3.51431 0.0486563 0.0481822 0.000103752 0.0484459 8.52491e-07 272.896 
-0.31 -0.05 -2.09124 3.82053 0.0486374 0.0480654 7.8473e-05 0.0483837 8.51656e-07 272.813 
-0.27 -0.09 -2.33507 3.34313 0.0487452 0.0481848 0.00010214 0.0484751 8.53275e-07 272.81 
-0.31 -0.07 -2.04819 3.38518 0.0487265 0.0480998 6.63114e-05 0.048435 8.52753e-07 272.751 
-0.29 -0.07 -2.43923 3.67654 0.0486779 0.0481462 0.000114501 0.048412 8.51836e-07 272.915 
-0.25 -0.07 -2.52677 2.98742 0.0486814 0.0482009 0.000114662 0.0484523 8.5245e-07 272.945 
-0.29 -0.05 -2.14994 3.696 0.0486786 0.0481524 9.54504e-05 0.0484066 8.51922e-07 272.857 
-0.27 -0.05 -2.40364 3.56201 0.048682 0.0481798 8.91241e-05 0.0484236 8.51607e-07 273.054 
-0.31 -0.03 -2.17317 3.94989 0.0485876 0.0480488 1.60201e-05 0.0483086 8.50171e-07 272.865 
-0.25 -0.05 -2.50048 3.19529 0.048705 0.0481854 9.8966e-05 0.0484472 8.52277e-07 272.972 
-0.29 -0.03 -2.25869 3.83106 0.0486015 0.0480974 4.32661e-05 0.0483606 8.50954e-07 272.908 
-0.27 -0.03 -2.42079 3.71049 0.0486543 0.0481822 8.64321e-05 0.0484381 8.52815e-07 272.748 
-0.25 -0.03 -2.32687 3.15342 0.0486387 0.0481865 9.56112e-05 0.0484241 8.52536e-07 272.759 
-0.27 -0.01 -2.2447 3.76056 0.0485376 0.0481319 8.24165e-05 0.0483792 8.5121e-07 272.931 
-0.31 -0.25 -1.76184 1.80225 0.0488478 0.0483166 0.000110002 0.0485777 8.54655e-07 272.946 
-0.29 -0.25 -1.90267 1.71731 0.0488734 0.0483307 9.50806e-05 0.0485955 8.54878e-07 272.975 
-0.27 -0.25 -1.95689 1.67672 0.0488683 0.0483369 9.46593e-05 0.0486086 8.54777e-07 273.081 
-0.29 -0.11 -2.0589 2.97123 0.0487769 0.0481905 7.48733e-05 0.0485167 8.53961e-07 272.824 
-0.33 -0.09 -1.81923 3.19638 0.0487569 0.0481441 4.16254e-05 0.0484195 8.52386e-07 272.781 
-0.27 -0.11 -2.2669 3.06003 0.0487734 0.0482132 0.000100107 0.048488 8.53497e-07 272.812 
-0.31 -0.09 -1.95051 3.33172 0.0487047 0.048122 6.00793e-05 0.0484226 8.51562e-07 273.062 
-0.29 -0.09 -2.10125 3.32144 0.0487274 0.0481752 6.41901e-05 0.0484527 8.53007e-07 272.77 
-0.33 -0.23 -1.53868 1.75399 0.0488515 0.0483253 9.41266e-05 0.0486317 8.56e-07 272.82 
-0.31 -0.23 -1.53494 2.07417 0.0488271 0.0482812 5.50129e-05 0.0485528 8.54361e-07 272.9 
-0.29 -0.23 -1.76607 1.79959 0.0488355 0.0483715 9.83168e-05 0.0486286 8.55209e-07 273.055 
-0.27 -0.23 -1.97137 1.68541 0.0488441 0.0483134 6.69234e-05 0.0485744 8.54454e-07 272.991 
-0.31 -0.21 -1.63069 2.06036 0.0488551 0.0482946 6.11658e-05 0.0485965 8.55998e-07 272.623 
-0.29 -0.21 -1.73037 1.95651 0.0488805 0.0483476 5.94468e-05 0.0486305 8.55779e-07 272.884 
-0.27 -0.21 -1.71017 1.87293 0.0488713 0.0483147 0.000133024 0.0486009 8.5555e-07 272.791 
-0.31 -0.19 -1.51703 2.26737 0.0488487 0.0483103 5.06304e-05 0.0485461 8.54744e-07 272.74 
-0.25 -0.21 -2.00659 1.75146 0.04888 0.0482436 9.05754e-05 0.0485955 8.55205e-07 272.87 
-0.29 -0.19 -1.72802 2.09119 0.0488355 0.0482924 9.01159e-05 0.0485524 8.55174e-07 272.638 
-0.27 -0.19 -1.94766 1.98281 0.0488334 0.0482842 0.000118383 0.0485519 8.5421e-07 272.943 
-0.31 -0.17 -1.60861 2.277 0.0487822 0.0482765 2.21032e-05 0.0485194 8.54189e-07 272.767 
-0.25 -0.19 -2.16608 2.11274 0.0488337 0.048277 0.000119575 0.0485477 8.54647e-07 272.78 
-0.29 -0.17 -1.74679 2.36209 0.0488142 0.0482845 9.33887e-05 0.0485458 8.54046e-07 272.961 
-0.27 -0.17 -2.13009 2.45995 0.0488013 0.0482672 0.00011069 0.0485524 8.54503e-07 272.852 
-0.31 -0.15 -1.67587 2.59349 0.0487673 0.0482262 6.10852e-05 0.0484845 8.53608e-07 272.756 
-0.25 -0.17 -2.50796 2.27693 0.0488289 0.0482792 0.000116898 0.0485394 8.53669e-07 273.045 
-0.29 -0.15 -1.96508 2.64242 0.0487391 0.0482004 0.000110614 0.0484597 8.53203e-07 272.746 
-0.27 -0.15 -2.21118 2.67959 0.0487634 0.0483182 0.000102662 0.0485557 8.5431e-07 272.932 
-0.31 -0.13 -1.88968 2.90652 0.0487636 0.0482025 6.798e-05 0.0484781 8.53431e-07 272.777 
-0.25 -0.15 -2.3045 2.51977 0.0487606 0.0482698 0.000111439 0.0485075 8.53588e-07 272.892 
-0.29 -0.13 -2.17665 2.90954 0.0487803 0.0481873 6.86154e-05 0.048503 8.54311e-07 272.636 
-0.27 -0.13 -2.47262 2.80236 0.0487669 0.0482617 9.33951e-05 0.0485215 8.54151e-07 272.791 
-0.31 -0.11 -1.88282 3.38403 0.0487964 0.0481716 5.21448e-05 0.048493 8.5278e-07 273.069 
-0.25 -0.13 -2.50569 2.63015 0.0487914 0.0482494 0.000128217 0.0485019 8.53879e-07 272.768 
-0.25 -0.25 -1.95485 1.45185 0.0488562 0.0483402 0.000118102 0.048607 8.55476e-07 272.848 
-0.25 -0.23 -2.08645 1.66707 0.0488196 0.0482878 0.000121132 0.0485466 8.54432e-07 272.843 
-0.25 -0.11 -2.47871 2.77597 0.0487695 0.0482393 9.53338e-05 0.0484833 8.52973e-07 272.953 
-0.25 -0.09 -2.64861 2.85691 0.0487466 0.0482599 0.000130925 0.0484995 8.5311e-07 273 
-0.25 -0.01 -2.62663 3.4133 0.0485145 0.048165 0.000134762 0.0483389 8.51312e-07 272.671 
-0.23 -0.49 -0.824197 0.0397417 0.0486626 0.04855 0.000117508 0.0486017 8.5494e-07 272.99 
-0.21 -0.49 -0.833413 -0.0529558 0.0486948 0.0485226 0.000157446 0.0486191 8.54066e-07 273.367 
-0.19 -0.49 -0.898549 0.094735 0.0487259 0.0485864 0.000187562 0.0486671 8.55624e-07 273.138 
-0.23 -0.47 -0.851351 0.103597 0.0487229 0.0485333 0.000103424 0.0486346 8.55758e-07 272.913 
-0.17 -0.49 -1.06377 0.0847234 0.0487246 0.048612 0.000147579 0.0486727 8.55787e-07 273.118 
-0.21 -0.47 -1.01904 0.0998825 0.0487239 0.04849 0.00013191 0.0486067 8.55438e-07 272.859 
-0.15 -0.49 -1.05317 -0.00478522 0.0486934 0.0486206 0.000190389 0.0486356 8.55608e-07 272.967 