ITEM: TIMESTEP
881000
ITEM: NUMBER OF CELLS
2500
ITEM: BOX BOUNDS ss ss pp
-0.5 0.5
-0.5 0.5
-0.5 0.5
ITEM: CELLS xc yc f_U[*] f_V[*] f_Tau[1] f_Tau[2] f_Tau[3] f_Press[*] f_Mrho[*] f_Ttra[*] 
-0.49 -0.49 -0.184115 0.157784 0.0486861 0.048563 -4.97641e-05 0.0486899 8.55334e-07 273.359 
-0.47 -0.49 -0.194281 -0.0586041 0.0486087 0.0485349 -2.4116e-06 0.048591 8.54747e-07 272.991 
-0.45 -0.49 0.0280513 -0.0735901 0.048595 0.0485457 -8.01485e-06 0.0485487 8.54581e-07 272.807 
-0.49 -0.47 0.183623 0.0475675 0.0486543 0.0485411 1.89614e-05 0.0485796 8.5381e-07 273.226 
-0.43 -0.49 -0.000488189 -0.0917037 0.0485614 0.0485935 7.65083e-06 0.0485456 8.5399e-07 272.978 
-0.47 -0.47 0.077603 -0.0231393 0.0486704 0.0485451 -4.27394e-06 0.0486454 8.5429e-07 273.443 
-0.41 -0.49 0.090868 0.0310498 0.0486359 0.0485107 6.4146e-05 0.0485558 8.54617e-07 272.835 
-0.45 -0.47 -0.0498201 0.0653547 0.0486476 0.0485297 4.81657e-05 0.0485602 8.53876e-07 273.096 
-0.49 -0.45 -0.0956186 0.0063626 0.0487433 0.0485721 4.35982e-06 0.048677 8.55174e-07 273.338 
-0.39 -0.49 0.085737 -0.0934757 0.0486712 0.0484288 -3.74639e-06 0.0485362 8.54232e-07 272.848 
-0.43 -0.47 -0.0704057 -0.0735404 0.0486664 0.0485817 8.63818e-06 0.048647 8.55377e-07 273.105 
-0.47 -0.45 -0.052974 0.143354 0.0487155 0.0485094 5.05415e-05 0.0486175 8.54072e-07 273.356 
-0.37 -0.49 -0.0678823 0.183629 0.0487331 0.0485431 1.86517e-05 0.0486111 8.55845e-07 272.754 
-0.41 -0.47 -0.0826779 0.0915582 0.0486268 0.0484956 1.20603e-05 0.048568 8.55792e-07 272.529 
-0.45 -0.45 -0.375045 0.142865 0.0488032 0.048594 -5.41914e-06 0.04868 8.55852e-07 273.138 
-0.49 -0.43 -0.0366189 0.165233 0.0486777 0.0485435 7.34787e-06 0.0486654 8.56765e-07 272.765 
-0.35 -0.49 -0.187941 0.0438675 0.0487301 0.0485862 0.000123621 0.0486011 8.55751e-07 272.727 
-0.39 -0.47 -0.457345 0.175919 0.0486501 0.0484422 2.06125e-05 0.0485375 8.54241e-07 272.852 
-0.43 -0.45 -0.335136 0.0307264 0.0488232 0.0485589 1.86515e-05 0.0486385 8.54404e-07 273.368 
-0.47 -0.43 -0.246402 0.209116 0.0487569 0.0485536 -2.9322e-05 0.0486932 8.57018e-07 272.84 
-0.37 -0.47 -0.478719 0.13681 0.0486629 0.0484599 -4.90145e-06 0.0485307 8.53911e-07 272.919 
-0.41 -0.45 -0.446761 0.228125 0.0487641 0.0485256 4.25609e-05 0.0486498 8.54914e-07 273.268 
-0.45 -0.43 -0.356183 0.458404 0.0487264 0.04866 -6.55482e-05 0.0486668 8.55887e-07 273.053 
-0.49 -0.41 -0.0964837 0.327136 0.0488125 0.0484822 -2.15578e-05 0.0486264 8.55897e-07 272.823 
-0.35 -0.47 -0.704705 0.159908 0.0487231 0.0485317 0.000108011 0.0486165 8.54726e-07 273.141 
-0.39 -0.45 -0.541864 0.278888 0.048758 0.048424 -2.43497e-05 0.0485872 8.54382e-07 273.086 
-0.43 -0.43 -0.456324 -0.09997 0.0487429 0.0484777 3.73984e-05 0.0486146 8.54953e-07 273.058 
-0.47 -0.41 -0.268039 0.347384 0.0488026 0.0486232 -3.4155e-05 0.0487135 8.56845e-07 273.009 
-0.37 -0.45 -0.793012 0.234928 0.0486681 0.0484766 4.78432e-05 0.0485274 8.54648e-07 272.665 
-0.41 -0.43 -0.577514 0.425133 0.0488151 0.0485679 6.39481e-06 0.0486562 8.55496e-07 273.118 
-0.45 -0.41 -0.0773757 0.216706 0.0488229 0.0485616 1.62625e-05 0.0486915 8.5621e-07 273.088 
-0.49 -0.39 0.111431 0.272916 0.0487353 0.0484787 -5.38283e-05 0.0485815 8.55422e-07 272.722 
-0.35 -0.45 -0.644605 0.212222 0.0486711 0.0484572 5.17108e-05 0.0485511 8.55361e-07 272.571 
-0.39 -0.43 -0.641885 0.375987 0.0487958 0.0483817 2.85271e-05 0.0485653 8.54301e-07 272.989 
-0.43 -0.41 -0.249094 0.277247 0.0487618 0.0485299 -3.75786e-05 0.0486472 8.54797e-07 273.291 
-0.47 -0.39 0.214126 0.253546 0.0488067 0.0486136 -5.43539e-05 0.0486701 8.56726e-07 272.804 
-0.37 -0.43 -0.798894 0.318961 0.0488226 0.0484228 4.86779e-05 0.0485938 8.55243e-07 272.849 
-0.41 -0.41 -0.630193 0.545838 0.0487684 0.0485127 2.56734e-05 0.0486094 8.54487e-07 273.177 
-0.45 -0.39 0.124056 0.55688 0.0487901 0.0484514 1.54985e-05 0.0486439 8.54818e-07 273.266 
-0.35 -0.43 -0.976889 0.256795 0.0488549 0.0485252 1.76355e-05 0.0486521 8.56148e-07 272.887 
-0.39 -0.41 -0.693141 0.428494 0.0487811 0.0484049 3.13119e-05 0.0485871 8.54559e-07 273.029 
-0.43 -0.39 -0.327924 0.668217 0.0488141 0.0485978 -1.09035e-05 0.0487316 8.55952e-07 273.396 
-0.37 -0.41 -0.58393 0.561062 0.0487656 0.0484373 7.28716e-06 0.0485902 8.54224e-07 273.153 
-0.41 -0.39 -0.464307 0.687708 0.0487571 0.0484431 3.8744e-06 0.0486123 8.5505e-07 273.014 
-0.35 -0.41 -1.07895 0.488768 0.0487175 0.0484809 -1.61718e-05 0.0485341 8.54394e-07 272.784 
-0.39 -0.39 -0.628822 0.390315 0.048735 0.0483861 3.44419e-05 0.0485458 8.54863e-07 272.7 
-0.37 -0.39 -0.724372 0.529711 0.0487816 0.0484585 5.17564e-05 0.0485972 8.54691e-07 273.044 
-0.35 -0.39 -0.64125 0.902816 0.0488273 0.0484871 8.95867e-05 0.0485923 8.54872e-07 272.959 
-0.37 -0.37 -0.906247 0.527993 0.0487916 0.0484686 -6.84534e-06 0.0485942 8.53925e-07 273.272 
-0.33 -0.49 -0.427783 0.127539 0.0486673 0.0484555 8.88722e-05 0.0485343 8.5447e-07 272.761 
-0.33 -0.47 -0.496509 0.413235 0.0486874 0.0485004 9.27427e-05 0.0486056 8.54197e-07 273.249 
-0.33 -0.43 -0.896153 -0.00204952 0.0488073 0.0484995 3.97957e-05 0.0486625 8.56768e-07 272.748 
-0.49 -0.37 -0.0437165 0.0944002 0.0487862 0.0485657 -7.80595e-05 0.048662 8.55735e-07 273.074 
-0.47 -0.37 -0.0360571 0.438391 0.0487589 0.048462 -4.38246e-05 0.0486083 8.56213e-07 272.621 
-0.45 -0.37 -0.438631 0.631021 0.048771 0.0485314 -1.56359e-05 0.0486051 8.54325e-07 273.205 
-0.49 -0.35 -0.0836652 0.311656 0.0487918 0.0485729 -5.52592e-06 0.0486494 8.56513e-07 272.756 
-0.43 -0.37 -0.335022 0.734154 0.0487943 0.0485441 1.47083e-05 0.0486445 8.54488e-07 273.375 
-0.47 -0.35 -0.128938 0.53208 0.0487898 0.0484383 -3.12783e-05 0.0486199 8.55501e-07 272.913 
-0.45 -0.35 -0.186965 0.728868 0.0488177 0.0485252 -2.24632e-05 0.0486971 8.55388e-07 273.382 
-0.49 -0.33 -0.140988 0.470127 0.0488599 0.048542 -1.49837e-05 0.0487089 8.5705e-07 272.918 
-0.39 -0.37 -0.47647 0.770616 0.0487702 0.0484018 5.97178e-05 0.0485281 8.53809e-07 272.937 
-0.43 -0.35 -0.293138 0.53182 0.0488096 0.048478 -3.79312e-05 0.0486507 8.55956e-07 272.94 
-0.47 -0.33 -0.340702 0.541779 0.048915 0.0485085 -1.88135e-05 0.0487005 8.5606e-07 273.187 
-0.41 -0.35 -0.39681 0.809565 0.0488043 0.0483856 7.66606e-05 0.0486052 8.54987e-07 272.994 
-0.45 -0.33 -0.350752 0.909963 0.0488558 0.0484879 -5.54338e-05 0.0486697 8.55797e-07 273.098 
-0.49 -0.31 -0.0802645 0.612373 0.0487001 0.0484636 -7.43394e-05 0.0485564 8.53946e-07 273.053 
-0.39 -0.35 -0.563946 1.12119 0.0488725 0.0484527 4.8352e-06 0.0486298 8.54957e-07 273.142 
-0.43 -0.33 -0.463134 0.662301 0.0488452 0.0484321 2.8469e-05 0.0486456 8.54884e-07 273.254 
-0.47 -0.31 -0.209804 0.859927 0.048714 0.0485097 -2.98665e-05 0.0485896 8.54221e-07 273.151 
-0.37 -0.35 -0.87771 1.02441 0.0488057 0.0484036 9.78818e-05 0.0485946 8.55596e-07 272.741 
-0.41 -0.33 -0.690966 0.845964 0.048861 0.0484118 -3.02533e-05 0.0486408 8.55262e-07 273.106 
-0.45 -0.31 -0.293935 0.808348 0.0487802 0.0485189 -5.57473e-05 0.0486216 8.55011e-07 273.079 
-0.49 -0.29 -0.0720917 0.786401 0.0486979 0.0484255 -7.78817e-05 0.0486037 8.54762e-07 273.058 
-0.35 -0.35 -1.10212 0.774345 0.0488256 0.0483764 4.66868e-05 0.0486028 8.54466e-07 273.147 
-0.39 -0.33 -0.833038 1.34378 0.0488393 0.0484189 3.81426e-05 0.0485859 8.55721e-07 272.652 
-0.43 -0.31 -0.555963 1.00632 0.0487765 0.0483873 -6.60054e-05 0.0486183 8.54266e-07 273.298 
-0.47 -0.29 -0.189823 0.887256 0.0487263 0.0485192 -7.86925e-05 0.0486267 8.54836e-07 273.163 
-0.37 -0.33 -0.597104 1.13421 0.0488902 0.0484834 5.75541e-05 0.0486418 8.55657e-07 272.986 
-0.41 -0.31 -0.824474 0.978198 0.0488414 0.0483478 2.17006e-05 0.0486347 8.55354e-07 273.043 
-0.45 -0.29 -0.120705 0.902375 0.0487714 0.0484985 -2.84908e-05 0.0486374 8.54858e-07 273.216 
-0.49 -0.27 -0.113821 0.878395 0.0487934 0.0484376 -6.08309e-05 0.0486418 8.54803e-07 273.258 
-0.35 -0.33 -0.638946 0.920017 0.0488555 0.0483186 3.40059e-05 0.0486004 8.55058e-07 272.945 
-0.39 -0.31 -0.710026 1.20339 0.0488637 0.048413 3.84857e-05 0.0486428 8.54667e-07 273.308 
-0.43 -0.29 -0.266537 1.28032 0.0487309 0.0483513 -4.93497e-05 0.0485825 8.54879e-07 272.901 
-0.47 -0.27 -0.188379 0.831007 0.0488468 0.0484891 -0.000111942 0.0487235 8.55644e-07 273.448 
-0.37 -0.31 -0.608562 0.939522 0.0488619 0.0484204 4.32665e-05 0.0486273 8.55988e-07 272.799 
-0.41 -0.29 -0.482411 1.03301 0.0487436 0.0482997 -5.97217e-05 0.0485568 8.5444e-07 272.897 
-0.45 -0.27 -0.159748 1.02034 0.0488552 0.0484254 -3.5818e-05 0.0486478 8.55997e-07 272.911 
-0.35 -0.31 -0.819957 1.22249 0.0488806 0.0483845 4.62341e-05 0.0486507 8.55582e-07 273.06 
-0.39 -0.29 -0.375186 1.25293 0.0488135 0.048419 -2.13981e-06 0.0485896 8.53355e-07 273.429 
-0.43 -0.27 -0.385695 1.46361 0.0488161 0.0484276 6.48355e-06 0.048612 8.54729e-07 273.115 
-0.37 -0.29 -0.752208 0.916484 0.0488157 0.0484121 1.70068e-05 0.0486539 8.54396e-07 273.457 
-0.41 -0.27 -0.393282 1.21247 0.0487775 0.0483361 -6.97648e-05 0.048535 8.54267e-07 272.83 
-0.35 -0.29 -0.952191 1.49223 0.0488262 0.048359 7.65443e-05 0.0485715 8.54554e-07 272.943 
-0.39 -0.27 -0.965791 1.35169 0.04871 0.0483434 -5.27993e-05 0.0485773 8.54904e-07 272.864 
-0.33 -0.29 -0.885857 1.30612 0.0488846 0.0483519 5.31461e-05 0.0486051 8.55595e-07 272.799 
-0.37 -0.27 -1.10897 1.41004 0.0487781 0.0483402 7.30295e-06 0.0485868 8.5569e-07 272.667 
-0.35 -0.27 -1.16273 1.44715 0.0488306 0.0483375 4.63785e-05 0.048592 8.55085e-07 272.889 
-0.33 -0.27 -1.4372 1.23971 0.048824 0.048352 6.20808e-05 0.04854 8.54729e-07 272.71 
-0.41 -0.37 -0.105841 0.766657 0.0488252 0.0484219 2.2706e-05 0.0486249 8.55115e-07 273.064 
-0.35 -0.37 -0.904387 1.13405 0.0487466 0.0483996 4.71564e-05 0.0485753 8.54823e-07 272.879 
-0.33 -0.37 -0.87983 0.444673 0.0487527 0.0485188 4.635e-05 0.0485959 8.54608e-07 273.063 
-0.33 -0.35 -1.08844 0.810311 0.0488306 0.0484898 7.9493e-05 0.0486557 8.55541e-07 273.101 
-0.33 -0.31 -1.03336 1.15016 0.0488561 0.0483827 8.6577e-05 0.0486296 8.55941e-07 272.827 
-0.35 -0.25 -1.19631 1.47438 0.0487916 0.0483032 2.05623e-05 0.048579 8.5442e-07 273.028 
-0.31 -0.49 -0.612456 0.124165 0.0487178 0.048625 9.60857e-05 0.0487346 8.56025e-07 273.389 
-0.29 -0.49 -0.731227 -0.0217675 0.0486256 0.0484814 3.13099e-05 0.0485756 8.53411e-07 273.332 
-0.27 -0.49 -0.848607 -0.00617332 0.0486272 0.0483564 0.00012364 0.0485154 8.53784e-07 272.874 
-0.31 -0.47 -0.885392 0.139065 0.0487191 0.0486078 0.000107421 0.0486646 8.5471e-07 273.417 
-0.29 -0.47 -0.80536 0.0220449 0.0486917 0.0484389 0.000149051 0.0486125 8.54193e-07 273.289 
-0.27 -0.47 -0.639363 -0.0064856 0.0486799 0.0484216 5.89512e-05 0.0485303 8.53213e-07 273.14 
-0.31 -0.45 -0.448288 0.480818 0.0487762 0.0485433 6.45486e-05 0.0486381 8.559e-07 272.887 
-0.29 -0.45 -0.677784 0.0490606 0.0487745 0.0484894 0.000145033 0.0486392 8.54558e-07 273.322 
-0.27 -0.45 -1.03605 0.133074 0.0487665 0.0484538 0.000124361 0.0485801 8.54106e-07 273.135 
-0.31 -0.43 -0.947781 0.410044 0.0488084 0.0485057 7.85011e-05 0.0486634 8.57008e-07 272.677 
-0.29 -0.43 -1.12525 0.425738 0.0488361 0.0484623 0.000115144 0.0486239 8.55576e-07 272.911 
-0.27 -0.43 -1.1846 0.393668 0.0488378 0.0484617 0.000136873 0.0486502 8.55847e-07 272.972 
-0.31 -0.41 -1.33246 0.387598 0.0487742 0.0484822 0.000101873 0.048628 8.54894e-07 273.152 
-0.25 -0.43 -1.26962 0.269688 0.0487974 0.0485252 0.000140302 0.0486748 8.54625e-07 273.501 
-0.29 -0.41 -1.20315 0.400145 0.0487987 0.0484371 8.75934e-05 0.0486377 8.55471e-07 273.022 
-0.27 -0.41 -1.24818 0.398502 0.0488246 0.0484451 0.00014569 0.0486327 8.55905e-07 272.856 
-0.31 -0.39 -1.34792 0.46316 0.0487827 0.0484511 7.20934e-05 0.0485765 8.54588e-07 272.96 
-0.25 -0.41 -1.37917 0.401034 0.048848 0.0485407 0.000144942 0.0486845 8.55516e-07 273.27 
-0.29 -0.39 -1.44735 0.26475 0.0487512 0.0483737 0.00011318 0.048547 8.54706e-07 272.757 
-0.27 -0.39 -1.64183 0.670357 0.0487395 0.0484429 0.00014404 0.0486191 8.55047e-07 273.053 
-0.31 -0.37 -1.09977 0.667192 0.0487065 0.0483591 8.52821e-05 0.0485324 8.54545e-07 272.726 
-0.25 -0.39 -1.70192 0.443892 0.0487563 0.0484994 0.00017013 0.048639 8.54758e-07 273.257 
-0.29 -0.37 -1.41772 0.525174 0.0487554 0.0484016 0.000103239 0.0485577 8.54646e-07 272.836 
-0.27 -0.37 -1.3307 0.714862 0.0488087 0.0484241 7.60294e-05 0.0486207 8.5483e-07 273.131 
-0.31 -0.35 -1.25235 0.725592 0.0488528 0.0483768 4.81671e-05 0.0486271 8.55168e-07 273.059 
-0.29 -0.35 -1.10806 0.699076 0.048833 0.0483707 7.27306e-05 0.0486084 8.55466e-07 272.859 
-0.27 -0.35 -1.42558 0.750851 0.0487832 0.0484134 9.23245e-05 0.0485826 8.56229e-07 272.471 
-0.31 -0.33 -1.07222 0.847099 0.048807 0.0484007 7.31139e-05 0.0486058 8.5518e-07 272.936 
-0.29 -0.33 -1.51184 0.926906 0.0487734 0.048288 8.50623e-05 0.0485339 8.54315e-07 272.808 
-0.27 -0.33 -1.54273 0.751241 0.048816 0.0484372 0.000171007 0.0486123 8.55863e-07 272.754 
-0.31 -0.31 -1.14453 0.921362 0.0488906 0.0483975 0.000137883 0.0486152 8.55341e-07 272.937 
-0.29 -0.31 -1.20727 1.08571 0.048896 0.0483187 0.000109312 0.0486402 8.55777e-07 272.939 
-0.27 -0.31 -1.63687 1.34917 0.0488884 0.0484115 8.15084e-05 0.0486256 8.54754e-07 273.184 
-0.31 -0.29 -1.11101 1.13559 0.0488635 0.0483539 6.91914e-05 0.0486118 8.54937e-07 273.047 
-0.25 -0.31 -1.86758 0.972837 0.0488678 0.0484569 0.000173493 0.0486861 8.55515e-07 273.28 
-0.29 -0.29 -1.54512 1.39273 0.0488727 0.0483617 9.21444e-05 0.048604 8.54777e-07 273.055 
-0.27 -0.29 -1.60074 1.50122 0.0488801 0.0483649 0.000140162 0.0485736 8.54054e-07 273.115 
-0.31 -0.27 -1.48089 1.36996 0.0488033 0.0483285 5.89637e-05 0.0486066 8.54997e-07 272.999 
-0.25 -0.29 -1.93418 1.32823 0.0488563 0.0484197 0.000144836 0.0486274 8.55272e-07 273.028 
-0.29 -0.27 -1.52834 1.91557 0.0487846 0.0482968 0.000132592 0.048539 8.53417e-07 273.124 
-0.27 -0.27 -1.97714 1.63721 0.04876 0.0483154 0.00010811 0.0485367 8.53476e-07 273.092 
-0.25 -0.27 -2.08615 1.57915 0.0487922 0.0483984 0.000176327 0.0485813 8.55011e-07 272.852 
-0.33 -0.45 -0.710543 0.122829 0.0487934 0.0485732 6.22878e-05 0.0486341 8.55132e-07 273.11 
-0.33 -0.41 -1.49186 0.177805 0.0487479 0.048472 6.31331e-05 0.0485796 8.54618e-07 272.968 
-0.33 -0.39 -1.0158 0.380075 0.0487812 0.0484463 1.81447e-05 0.0485662 8.54414e-07 272.958 
-0.33 -0.33 -0.933316 0.950709 0.0488506 0.0484762 7.61946e-05 0.04867 8.55543e-07 273.18 
-0.25 -0.49 -0.8023 0.00166673 0.0486754 0.0485656 0.000113639 0.048678 8.55936e-07 273.1 
-0.25 -0.47 -0.633413 0.0225716 0.0487161 0.0485164 6.6347e-05 0.0486171 8.55196e-07 272.994 
-0.25 -0.45 -1.26784 -0.00080596 0.048704 0.0484917 5.83196e-05 0.0486334 8.54471e-07 273.317 
-0.25 -0.37 -1.52719 0.565916 0.0488122 0.0485102 0.00011532 0.0486569 8.55908e-07 272.991 
-0.25 -0.35 -1.51272 0.918021 0.0487776 0.0484718 0.000126534 0.0485837 8.54794e-07 272.935 
-0.25 -0.33 -1.70402 1.13367 0.0487539 0.048503 5.8208e-05 0.0486665 8.55493e-07 273.177 
-0.49 -0.25 -0.05071 1.20193 0.0487757 0.0484995 -0.000127035 0.0486741 8.55215e-07 273.308 
-0.47 -0.25 -0.314498 1.01527 0.0487771 0.0484631 -8.73993e-05 0.0486152 8.55121e-07 273.007 
-0.45 -0.25 -0.552254 1.03896 0.0486883 0.0483348 -4.82787e-05 0.048561 8.54182e-07 273.003 
-0.49 -0.23 0.108163 1.26952 0.0486651 0.0484591 -0.000176902 0.0485553 8.54252e-07 272.949 
-0.47 -0.23 -0.255095 1.39935 0.0486846 0.0483592 -0.00011033 0.048528 8.54197e-07 272.813 
-0.45 -0.23 -0.542962 0.991369 0.0487711 0.0483783 -9.34541e-05 0.0486118 8.54433e-07 273.209 
-0.49 -0.21 -0.192764 1.38921 0.0487292 0.0484212 -0.000207375 0.0485889 8.55729e-07 272.666 
-0.43 -0.23 -0.633463 1.31517 0.0487978 0.0484276 -7.55142e-05 0.0485851 8.5456e-07 273.017 
-0.47 -0.21 -0.106033 1.47264 0.0487676 0.0483176 -0.000157166 0.0485738 8.54662e-07 272.922 
-0.41 -0.23 -0.757281 1.62785 0.048825 0.0483224 -2.71952e-05 0.0485809 8.54794e-07 272.919 
-0.45 -0.21 -0.254465 1.24661 0.0488025 0.0483277 -8.7445e-05 0.0485965 8.54187e-07 273.201 
-0.49 -0.19 -0.0880891 1.45006 0.0488599 0.0484266 -0.000153271 0.0486187 8.56401e-07 272.619 
-0.39 -0.23 -0.724941 1.8931 0.0488432 0.0483053 -3.1145e-05 0.0486213 8.54812e-07 273.141 
-0.43 -0.21 -0.708044 1.50591 0.0488534 0.0484614 -7.50447e-05 0.0486583 8.55481e-07 273.134 
-0.47 -0.19 -0.174017 1.44044 0.0488053 0.0482839 -0.000131462 0.0485545 8.55171e-07 272.651 
-0.41 -0.21 -0.821471 1.73694 0.0488446 0.0482939 -7.03592e-05 0.048603 8.55149e-07 272.93 
-0.45 -0.19 -0.315428 1.74756 0.0488143 0.0483491 -0.000143201 0.0485924 8.54687e-07 273.018 
-0.49 -0.17 0.108412 1.47083 0.0487945 0.0484212 -0.00016719 0.0486136 8.55594e-07 272.848 
-0.39 -0.21 -0.96817 1.94602 0.0488487 0.0482757 -4.03362e-05 0.0485996 8.55513e-07 272.795 
-0.43 -0.19 -0.547633 1.75252 0.0488585 0.0483899 -0.000137957 0.0486572 8.55827e-07 273.018 
-0.47 -0.17 -0.131992 1.91368 0.0488103 0.0482112 -0.00012991 0.0485161 8.53606e-07 272.935 
-0.41 -0.19 -0.817102 1.70236 0.0488678 0.048271 -3.42314e-05 0.0485757 8.54608e-07 272.95 
-0.45 -0.17 -0.359588 1.72254 0.0488406 0.0483677 -0.000164446 0.0486176 8.54649e-07 273.172 
-0.49 -0.15 0.0780884 1.34585 0.0486827 0.0483237 -0.000175076 0.048504 8.53515e-07 272.896 
-0.39 -0.19 -1.04204 2.27397 0.0488057 0.0482364 -1.80608e-05 0.0485254 8.54078e-07 272.836 
-0.43 -0.17 -0.631486 2.03588 0.0487744 0.0482791 -8.74429e-05 0.0485948 8.54455e-07 273.106 
-0.47 -0.15 0.414118 1.83894 0.0487227 0.0482267 -0.000173635 0.0484247 8.53038e-07 272.602 
-0.41 -0.17 -0.774985 2.03978 0.0487063 0.048228 -1.54481e-05 0.0484905 8.52623e-07 273.105 
-0.45 -0.15 -0.00457916 2.34873 0.0487525 0.0483626 -0.000131021 0.0485619 8.5373e-07 273.152 
-0.39 -0.17 -0.822591 2.2197 0.048763 0.0482476 -6.25259e-05 0.0484956 8.53164e-07 272.961 
-0.43 -0.15 -0.408358 2.18316 0.0486897 0.048148 -2.33153e-05 0.0484594 8.53494e-07 272.652 
-0.41 -0.15 -0.650907 2.13895 0.0487913 0.0482703 -4.88755e-05 0.0485472 8.537e-07 273.079 
-0.39 -0.15 -0.926126 2.57754 0.0487618 0.0482411 -4.58942e-05 0.048516 8.53438e-07 272.988 
-0.43 -0.25 -0.242551 1.37184 0.0487691 0.0485188 -1.38231e-05 0.0486281 8.55289e-07 273.026 
-0.41 -0.25 -0.377365 1.53708 0.048819 0.0482708 -2.44448e-05 0.0485693 8.54801e-07 272.852 
-0.39 -0.25 -0.707545 1.66959 0.0488453 0.0483745 -3.66577e-05 0.0486095 8.56121e-07 272.657 
-0.33 -0.25 -1.1938 1.64948 0.0488023 0.0483125 3.76692e-05 0.0485813 8.54506e-07 273.013 
-0.37 -0.25 -1.06172 1.49198 0.048803 0.0482884 -8.23409e-06 0.0485503 8.55684e-07 272.464 
-0.37 -0.23 -0.90246 1.9446 0.0488539 0.0482949 4.81434e-07 0.0486353 8.56365e-07 272.724 
-0.35 -0.23 -1.08314 1.63901 0.0488328 0.0482838 -7.79219e-06 0.0486037 8.5604e-07 272.65 
-0.37 -0.21 -1.18019 2.06018 0.0488258 0.0482608 -9.59221e-06 0.0485904 8.54906e-07 272.937 
-0.35 -0.21 -1.27051 1.8265 0.0488657 0.0483177 -5.13324e-06 0.0485984 8.54916e-07 272.979 
-0.33 -0.21 -1.40169 2.24533 0.0489078 0.0482986 1.37084e-05 0.0486425 8.56222e-07 272.81 
-0.37 -0.19 -0.953937 1.99299 0.0488671 0.0482729 -7.47871e-06 0.0485859 8.5586e-07 272.607 
-0.35 -0.19 -1.0802 2.05234 0.0488357 0.0482911 -1.64091e-05 0.0485592 8.55136e-07 272.688 
-0.33 -0.19 -1.25117 2.46321 0.048767 0.0481979 5.90138e-05 0.0485331 8.54772e-07 272.658 
-0.37 -0.17 -1.095 2.28247 0.0487573 0.0482217 -4.12894e-05 0.0484997 8.53426e-07 272.9 
-0.35 -0.17 -1.40567 2.33994 0.0487474 0.0482293 3.47887e-05 0.0485225 8.53872e-07 272.885 
-0.33 -0.17 -1.61067 2.59216 0.0487592 0.0481865 6.07074e-05 0.0484986 8.53821e-07 272.768 
-0.37 -0.15 -1.1886 2.53644 0.0487606 0.0482155 -1.91779e-05 0.0484571 8.51314e-07 273.337 
-0.35 -0.15 -1.4121 2.57239 0.0487313 0.0481588 1.59351e-06 0.0484511 8.52844e-07 272.813 
-0.33 -0.15 -1.63355 2.62444 0.0487743 0.0481665 1.08207e-05 0.0484871 8.54282e-07 272.556 
-0.37 -0.13 -1.2898 2.74538 0.0487378 0.0482075 5.39239e-06 0.048472 8.53326e-07 272.776 
-0.35 -0.13 -1.52137 3.03996 0.0486903 0.0481459 -2.64525e-05 0.0484217 8.52634e-07 272.714 
-0.33 -0.13 -1.81608 2.6076 0.048725 0.0481705 2.54063e-05 0.048414 8.52924e-07 272.578 
-0.37 -0.11 -0.973653 3.19148 0.0487545 0.0481774 -1.61237e-06 0.0485154 8.53546e-07 272.95 
-0.35 -0.11 -1.53396 3.2029 0.0487205 0.0482101 1.18908e-05 0.0484647 8.52995e-07 272.841 
-0.33 -0.11 -1.54349 2.82156 0.0486635 0.0480621 -1.90555e-05 0.048364 8.52184e-07 272.533 
-0.35 -0.09 -1.30355 3.46266 0.0487402 0.0482208 4.08337e-05 0.0484773 8.5159e-07 273.362 
-0.49 -0.13 -0.0523652 1.2844 0.048653 0.0482889 -0.000206107 0.0484763 8.53027e-07 272.896 
-0.47 -0.13 -0.114368 1.92825 0.048647 0.0481931 -0.000210735 0.0484046 8.52369e-07 272.703 
-0.45 -0.13 -0.0243066 2.68249 0.0486578 0.0482691 -0.000129187 0.0484692 8.53292e-07 272.771 
-0.49 -0.11 -0.0258818 1.31008 0.0487034 0.0482687 -0.00019472 0.0484807 8.53236e-07 272.854 
-0.43 -0.13 -0.324884 2.50893 0.0487039 0.0481216 -9.51786e-05 0.0484343 8.52454e-07 272.843 
-0.47 -0.11 -0.43187 2.21355 0.0486968 0.0482263 -0.000194782 0.0484821 8.5364e-07 272.733 
-0.41 -0.13 -0.851438 2.39372 0.0487619 0.0482686 -9.66087e-05 0.0485237 8.5286e-07 273.216 
-0.45 -0.11 -0.523474 2.48985 0.0487419 0.0481734 -0.000176525 0.048477 8.52642e-07 273.023 
-0.49 -0.09 -0.328419 1.70973 0.0485467 0.0482772 -0.00020044 0.0484294 8.52018e-07 272.955 
-0.39 -0.13 -1.11488 2.68934 0.0487505 0.0482158 -2.29972e-05 0.0485266 8.53273e-07 273.1 
-0.43 -0.11 -0.404704 2.81542 0.0487557 0.0481394 -0.000120073 0.0484746 8.53136e-07 272.851 
-0.47 -0.09 -0.539519 2.51502 0.048592 0.0482354 -0.000190734 0.0484577 8.5374e-07 272.564 
-0.41 -0.11 -0.450049 2.8641 0.0487222 0.0482215 -6.09111e-05 0.0484821 8.53177e-07 272.88 
-0.45 -0.09 -0.593327 2.4057 0.0485468 0.0480987 -0.000179245 0.0482986 8.51119e-07 272.505 
-0.39 -0.11 -0.795646 2.71719 0.0486978 0.04815 -3.75751e-05 0.048493 8.52484e-07 273.164 
-0.43 -0.09 -0.714159 2.8007 0.0485554 0.0480784 -0.000145028 0.0483419 8.5122e-07 272.717 
-0.41 -0.09 -0.828703 3.09164 0.0486235 0.0481374 -0.000111762 0.0484172 8.52239e-07 272.815 
-0.39 -0.09 -0.822339 2.97682 0.0486778 0.0482171 -3.19472e-05 0.0484617 8.52906e-07 272.852 
-0.37 -0.09 -1.31956 3.40761 0.0486197 0.0480691 -3.42082e-05 0.0483741 8.50728e-07 273.056 
-0.35 -0.03 -1.83252 3.70719 0.0486918 0.0481678 -6.58569e-05 0.0483881 8.51633e-07 272.845 
-0.37 -0.07 -1.43118 3.49463 0.0486755 0.0480529 -3.43034e-05 0.0483883 8.51196e-07 272.987 
-0.41 -0.05 -1.16772 3.46659 0.0486731 0.0480608 -0.000110937 0.0483481 8.51168e-07 272.769 
-0.45 -0.03 -0.797808 3.30062 0.0485537 0.0479627 -0.000214109 0.0482901 8.50648e-07 272.608 
-0.35 -0.07 -1.62351 3.54249 0.0486864 0.0481522 -1.98001e-05 0.0484485 8.52191e-07 273.007 
-0.39 -0.05 -1.37328 3.40623 0.0486595 0.048127 -9.23778e-05 0.0483623 8.51244e-07 272.824 
-0.43 -0.03 -0.820328 3.66274 0.0485669 0.0480361 -0.00020346 0.0483089 8.50448e-07 272.778 
-0.33 -0.07 -1.67162 3.52965 0.0487831 0.0481131 7.82642e-06 0.0484493 8.51749e-07 273.153 
-0.37 -0.05 -1.60842 3.78026 0.0486735 0.048059 -7.17723e-05 0.04834 8.50242e-07 273.02 
-0.41 -0.03 -0.873925 3.67872 0.0486138 0.048041 -0.000156433 0.048281 8.49987e-07 272.769 
-0.35 -0.05 -1.53718 3.53534 0.0486168 0.0481319 -6.48457e-05 0.0483585 8.51471e-07 272.73 
-0.39 -0.03 -1.39839 3.88486 0.0486392 0.0480898 -0.00011596 0.0483473 8.49777e-07 273.211 
-0.33 -0.05 -1.97479 3.82762 0.0486188 0.0480759 -4.03875e-05 0.0483483 8.52018e-07 272.498 
-0.37 -0.03 -1.50316 3.84572 0.0486673 0.0479863 -3.30204e-05 0.0482628 8.50205e-07 272.596 
-0.33 -0.03 -1.88384 4.13314 0.0486642 0.0480124 2.91567e-05 0.0483749 8.50955e-07 272.988 
-0.49 -0.07 0.0501526 2.10981 0.0485707 0.0483123 -0.00019141 0.0484381 8.52142e-07 272.964 
-0.47 -0.07 -0.0962562 2.44005 0.04856 0.0482185 -0.000202448 0.0484541 8.52948e-07 272.796 
-0.45 -0.07 -0.456784 2.67604 0.0486502 0.0480504 -0.000183354 0.0483637 8.51601e-07 272.718 
-0.49 -0.05 -0.217469 2.2226 0.0484837 0.0482349 -0.000272571 0.0483714 8.51788e-07 272.702 
-0.43 -0.07 -0.87989 3.24736 0.0486001 0.0480983 -0.000138683 0.0483563 8.50402e-07 273.061 
-0.47 -0.05 -0.510552 2.61073 0.0485947 0.048277 -0.00026149 0.0484338 8.5257e-07 272.803 
-0.41 -0.07 -1.10359 3.14725 0.0485762 0.0481046 -0.000119771 0.0483184 8.5006e-07 272.956 
-0.45 -0.05 -0.544084 2.99476 0.048558 0.047951 -0.000210669 0.0482731 8.49314e-07 272.94 
-0.49 -0.03 -0.121424 2.59041 0.0485716 0.048231 -0.000271173 0.0483812 8.51478e-07 272.856 
-0.39 -0.07 -1.46176 3.24734 0.0486062 0.0481302 -8.72347e-05 0.0483697 8.51937e-07 272.644 
-0.43 -0.05 -0.751621 3.55102 0.0486644 0.0481181 -0.000179174 0.0484284 8.51563e-07 273.095 
-0.47 -0.03 -0.344358 2.74394 0.0485517 0.0481967 -0.000241131 0.0483722 8.51351e-07 272.846 
-0.27 -0.07 -2.56941 3.74814 0.0486395 0.0481362 6.70155e-05 0.0483732 8.52467e-07 272.494 
-0.31 -0.05 -2.11755 3.96362 0.0486415 0.0480017 5.96696e-05 0.048338 8.5114e-07 272.72 
-0.27 -0.09 -2.51023 3.60073 0.0487325 0.0481756 3.38175e-05 0.0484404 8.53268e-07 272.617 
-0.31 -0.07 -2.26258 3.63487 0.0487779 0.0480822 2.60134e-05 0.0484581 8.5276e-07 272.879 
-0.29 -0.07 -2.52982 3.85699 0.0486992 0.048108 7.12712e-05 0.0483872 8.51716e-07 272.814 
-0.25 -0.07 -2.52935 3.12118 0.0486545 0.0480959 9.12669e-05 0.0483639 8.50851e-07 272.959 
-0.29 -0.05 -2.14651 3.84175 0.0486651 0.0480959 7.8488e-05 0.0483447 8.5176e-07 272.56 
-0.27 -0.05 -2.25806 3.84063 0.0486199 0.0481123 7.7931e-05 0.0483547 8.5147e-07 272.709 
-0.31 -0.03 -2.30198 4.18146 0.0486341 0.047967 1.66114e-05 0.0482812 8.5051e-07 272.602 
-0.25 -0.05 -2.37733 3.24165 0.0486534 0.0481076 7.87798e-05 0.0483863 8.52141e-07 272.673 
-0.29 -0.03 -2.29562 3.98119 0.0486472 0.0480634 3.74991e-05 0.0483608 8.50687e-07 272.994 
-0.27 -0.03 -2.3817 3.74005 0.0486779 0.0481008 8.83103e-05 0.0484056 8.52818e-07 272.565 
-0.25 -0.03 -2.25622 3.38849 0.0486054 0.0481452 8.43081e-05 0.048374 8.52388e-07 272.524 
-0.27 -0.01 -1.99869 4.01626 0.0485102 0.0480422 9.95112e-05 0.048345 8.50886e-07 272.842 
-0.31 -0.25 -1.69968 1.67207 0.0488949 0.0483149 8.9131e-05 0.0486012 8.54932e-07 272.989 
-0.29 -0.25 -2.11627 1.97231 0.0489483 0.0482982 0.000112767 0.0486118 8.55056e-07 273.009 
-0.27 -0.25 -1.89765 1.76474 0.048897 0.0482789 0.000134696 0.0486271 8.54567e-07 273.251 
-0.29 -0.11 -2.22913 2.98052 0.0487541 0.0481441 4.82221e-05 0.0484626 8.54629e-07 272.307 
-0.33 -0.09 -1.69459 3.02377 0.0487293 0.0480939 4.64315e-05 0.0484022 8.51683e-07 272.909 
-0.27 -0.11 -2.51427 3.34532 0.0487279 0.0481798 6.13047e-05 0.0484531 8.53192e-07 272.713 
-0.31 -0.09 -1.89435 3.46843 0.0486587 0.0480688 1.64805e-06 0.0484036 8.50709e-07 273.229 
-0.29 -0.09 -2.13814 3.54821 0.0486911 0.0481273 1.35887e-05 0.0483995 8.52214e-07 272.723 
-0.33 -0.23 -1.51966 1.75544 0.0488571 0.0482978 3.05315e-05 0.0486396 8.56484e-07 272.71 
-0.31 -0.23 -1.76163 2.10343 0.0488584 0.0482797 4.12771e-06 0.048616 8.55983e-07 272.737 
-0.29 -0.23 -1.72298 1.99354 0.0488265 0.0482839 0.000115941 0.0486108 8.55411e-07 272.89 
-0.27 -0.23 -2.09027 1.73235 0.048864 0.048278 0.000126845 0.0486052 8.55465e-07 272.842 
-0.31 -0.21 -1.68746 2.291 0.0487823 0.0481767 5.28163e-05 0.0485339 8.55021e-07 272.583 
-0.29 -0.21 -2.04195 2.11319 0.0488171 0.0482808 7.65985e-05 0.048589 8.56151e-07 272.532 
-0.27 -0.21 -1.89186 1.90391 0.0488624 0.0483073 0.000132501 0.0486086 8.55155e-07 272.96 
-0.31 -0.19 -1.51275 2.38103 0.048798 0.0482223 7.32036e-05 0.0485071 8.54136e-07 272.715 
-0.25 -0.21 -2.04616 1.46044 0.0488858 0.0482983 0.000122105 0.048614 8.55039e-07 273.027 
-0.29 -0.19 -1.45615 2.44627 0.0487468 0.0482363 0.000103164 0.0484739 8.54726e-07 272.34 
-0.27 -0.19 -1.69539 1.78398 0.0487124 0.0482371 0.000136352 0.0484675 8.52099e-07 273.144 
-0.31 -0.17 -1.48032 2.24834 0.0487477 0.0481802 3.87987e-05 0.048467 8.53145e-07 272.806 
-0.25 -0.19 -1.944 2.06541 0.0487187 0.0482911 9.66837e-05 0.0484714 8.53302e-07 272.78 
-0.29 -0.17 -1.56699 2.4357 0.0488178 0.0482219 7.21307e-05 0.0485528 8.53984e-07 273.02 
-0.27 -0.17 -2.12738 2.64978 0.0487565 0.0482228 0.00010827 0.0485167 8.53989e-07 272.815 
-0.31 -0.15 -1.80064 2.55451 0.0487755 0.048183 4.32997e-05 0.0485008 8.54096e-07 272.692 
-0.25 -0.17 -2.80164 2.22339 0.0488016 0.0483283 0.000124298 0.0485428 8.52937e-07 273.299 
-0.29 -0.15 -1.92784 2.60823 0.0487134 0.0481022 0.000133241 0.0484345 8.53436e-07 272.53 
-0.27 -0.15 -2.15332 3.03387 0.0487609 0.0483054 9.89795e-05 0.0485422 8.55116e-07 272.599 
-0.31 -0.13 -1.95083 2.85116 0.0487118 0.0481195 7.14554e-05 0.0484236 8.52345e-07 272.818 
-0.25 -0.15 -2.33568 2.56801 0.0488236 0.048314 8.75338e-05 0.0485427 8.53957e-07 272.972 
-0.29 -0.13 -2.14976 2.84195 0.0487813 0.0481055 4.44471e-05 0.0484788 8.53936e-07 272.62 
-0.27 -0.13 -2.34928 3.1638 0.0488011 0.0482756 5.33131e-05 0.0485786 8.55464e-07 272.693 
-0.31 -0.11 -1.79466 3.32168 0.048763 0.0481415 4.06071e-05 0.0484528 8.52452e-07 272.948 
-0.25 -0.13 -2.46769 2.83679 0.0487968 0.0482488 0.000128358 0.0485091 8.53908e-07 272.799 
-0.25 -0.25 -1.80978 1.54552 0.0489354 0.0483704 0.00015604 0.0486734 8.56295e-07 272.96 
-0.25 -0.23 -2.12705 1.70641 0.0488381 0.0483174 9.60409e-05 0.0485798 8.55341e-07 272.739 
-0.25 -0.11 -2.62012 3.02601 0.0487864 0.0482282 5.95169e-05 0.0484867 8.52989e-07 272.967 
-0.25 -0.09 -2.77409 3.03614 0.0486832 0.0481922 0.000148982 0.0484545 8.51428e-07 273.286 
-0.25 -0.01 -2.43123 3.5069 0.0485628 0.048119 0.000123836 0.0483406 8.51548e-07 272.605 
-0.23 -0.49 -0.764667 -0.0343731 0.0486894 0.0485724 0.000142692 0.0486295 8.55094e-07 273.097 
-0.21 -0.49 -0.772524 -0.0472342 0.0487079 0.0484945 0.000138772 0.0485875 8.53848e-07 273.259 
-0.19 -0.49 -0.880438 0.0644415 0.0487102 0.048621 0.000197738 0.048653 8.55233e-07 273.184 
-0.23 -0.47 -0.787607 -0.0992937 0.0487535 0.0485737 9.71166e-05 0.0486926 8.56294e-07 273.068 
-0.17 -0.49 -0.910488 0.153071 0.0486693 0.0485754 0.000126742 0.0486331 8.55132e-07 273.104 
-0.21 -0.47 -1.1287 0.363555 0.0487377 0.0484953 0.000146359 0.048612 8.54863e-07 273.072 
-0.15 -0.49 -0.936216 0.0134136 0.0486755 0.0486003 0.000222276 0.0486087 8.55713e-07 272.782 