ITEM: TIMESTEP
921500
ITEM: NUMBER OF CELLS
2500
ITEM: BOX BOUNDS ss ss pp
-0.5 0.5
-0.5 0.5
-0.5 0.5
ITEM: CELLS xc yc f_U[*] f_V[*] f_Tau[1] f_Tau[2] f_Tau[3] f_Press[*] f_Mrho[*] f_Ttra[*] 
-0.49 -0.49 -0.0753673 -0.00810647 0.0487072 0.0486082 -4.46261e-05 0.0487297 8.56045e-07 273.355 
-0.47 -0.49 -0.0164141 0.0510641 0.0486558 0.0485852 -1.90006e-05 0.0486349 8.55445e-07 273.015 
-0.45 -0.49 -0.0281902 -0.0463596 0.0486446 0.048565 3.08182e-06 0.0485741 8.55091e-07 272.786 
-0.49 -0.47 0.108429 -0.0532802 0.0487259 0.0485936 -1.68181e-05 0.0486529 8.55287e-07 273.166 
-0.43 -0.49 -0.0818682 0.0585844 0.0486127 0.0485701 -7.92067e-06 0.0485877 8.54845e-07 272.942 
-0.47 -0.47 0.00899328 0.0364766 0.0487472 0.0485692 -1.45847e-05 0.0486894 8.54816e-07 273.522 
-0.41 -0.49 -0.125992 -0.0268965 0.048662 0.0485143 3.61682e-05 0.0485867 8.55057e-07 272.868 
-0.45 -0.47 -0.0128842 0.13781 0.0487039 0.0485537 3.50365e-05 0.0486298 8.55066e-07 273.107 
-0.49 -0.45 -0.0790885 -0.0966083 0.0487504 0.0486114 -1.37288e-05 0.0486768 8.55355e-07 273.279 
-0.39 -0.49 -0.174944 0.0430964 0.0487004 0.0484935 1.4237e-06 0.0485878 8.5504e-07 272.88 
-0.43 -0.47 -0.0663256 0.00642494 0.0486898 0.048549 -9.81157e-06 0.048637 8.54739e-07 273.252 
-0.47 -0.45 -0.0874581 0.194869 0.0487262 0.0485104 4.98327e-05 0.0486381 8.54847e-07 273.224 
-0.37 -0.49 -0.287162 0.108252 0.0487249 0.0485236 1.47508e-05 0.048612 8.55784e-07 272.778 
-0.41 -0.47 -0.245133 0.210072 0.0486676 0.0485212 2.73616e-05 0.0486143 8.55965e-07 272.733 
-0.45 -0.45 -0.220108 0.0533217 0.048785 0.0485999 -2.57684e-06 0.0486988 8.56642e-07 272.991 
-0.49 -0.43 -0.0846087 0.0414448 0.0487059 0.048536 -2.55765e-05 0.048641 8.55986e-07 272.876 
-0.35 -0.49 -0.338689 -0.00640202 0.0487258 0.0485442 7.54013e-05 0.0485955 8.55421e-07 272.801 
-0.39 -0.47 -0.523238 0.278209 0.0486723 0.0484781 7.29815e-06 0.0485757 8.54625e-07 272.944 
-0.43 -0.45 -0.272816 0.279129 0.0488132 0.0485482 2.32336e-05 0.0486464 8.54642e-07 273.336 
-0.47 -0.43 -0.220327 0.186848 0.0487548 0.0485395 -2.84588e-05 0.0486952 8.56645e-07 272.97 
-0.37 -0.47 -0.539932 0.0987974 0.0486627 0.048468 1.10275e-05 0.0485357 8.54049e-07 272.903 
-0.41 -0.45 -0.336117 0.351135 0.0487647 0.0485249 1.04599e-05 0.0486462 8.55209e-07 273.154 
-0.45 -0.43 -0.36298 0.387909 0.0487479 0.0486487 -2.74673e-05 0.0486979 8.56571e-07 273.009 
-0.49 -0.41 -0.0736088 0.281783 0.0487575 0.0484769 -1.27395e-05 0.0486044 8.55814e-07 272.726 
-0.35 -0.47 -0.715724 0.114108 0.048736 0.0485256 8.34459e-05 0.0486289 8.55296e-07 273.029 
-0.39 -0.45 -0.384732 0.271724 0.0487464 0.0484533 2.44858e-05 0.0486045 8.55585e-07 272.799 
-0.43 -0.43 -0.507161 0.231792 0.0487595 0.0484863 1.29442e-05 0.0486236 8.55738e-07 272.858 
-0.47 -0.41 -0.313329 0.273248 0.0487813 0.0486202 -4.46373e-05 0.048717 8.57144e-07 272.934 
-0.37 -0.45 -0.602646 0.284687 0.0486893 0.0485269 3.71984e-05 0.0486016 8.55265e-07 272.885 
-0.41 -0.43 -0.553657 0.362118 0.0488069 0.048551 1.08969e-05 0.048668 8.56111e-07 272.988 
-0.45 -0.41 -0.29552 0.339458 0.0488136 0.048546 2.2879e-06 0.0486848 8.56658e-07 272.908 
-0.49 -0.39 0.0229017 0.297267 0.0487427 0.048493 -3.44055e-05 0.04862 8.55978e-07 272.761 
-0.35 -0.45 -0.665443 0.226738 0.0486822 0.0484428 3.05038e-05 0.0485545 8.55267e-07 272.62 
-0.39 -0.43 -0.536058 0.340653 0.0488017 0.0484159 2.96275e-05 0.0485923 8.54557e-07 273.059 
-0.43 -0.41 -0.431249 0.402238 0.048769 0.0485623 -2.11037e-05 0.0486672 8.55495e-07 273.18 
-0.47 -0.39 0.0514623 0.295516 0.0487813 0.0486274 -7.16927e-05 0.048683 8.56918e-07 272.815 
-0.37 -0.43 -0.63064 0.341539 0.0488264 0.0485043 5.86012e-05 0.0486415 8.56017e-07 272.87 
-0.41 -0.41 -0.612534 0.351748 0.0487573 0.0484794 1.25206e-05 0.0485944 8.55083e-07 272.903 
-0.45 -0.39 -0.0125671 0.655903 0.0487662 0.0484539 -2.87255e-05 0.0486231 8.55204e-07 273.026 
-0.35 -0.43 -0.758421 0.385167 0.0488378 0.0485113 -3.95771e-06 0.0486439 8.56447e-07 272.746 
-0.39 -0.41 -0.583378 0.357802 0.0487957 0.0484572 2.62703e-05 0.0485959 8.55413e-07 272.806 
-0.43 -0.39 -0.232083 0.500012 0.0488332 0.0486111 1.16387e-05 0.0487198 8.56795e-07 273.06 
-0.37 -0.41 -0.601454 0.526027 0.0487989 0.048486 8.88139e-06 0.0486386 8.55561e-07 272.998 
-0.41 -0.39 -0.414816 0.611039 0.0487691 0.0484185 -4.52952e-07 0.0486085 8.5546e-07 272.862 
-0.35 -0.41 -1.00879 0.571804 0.0487521 0.0485113 5.247e-06 0.048574 8.5522e-07 272.745 
-0.39 -0.39 -0.673516 0.368355 0.0487796 0.0484566 1.97761e-05 0.0486166 8.56101e-07 272.703 
-0.37 -0.39 -0.716222 0.524327 0.0487993 0.0484907 3.94442e-05 0.0486075 8.54828e-07 273.058 
-0.35 -0.39 -0.65282 0.800635 0.0488461 0.0485187 8.75617e-05 0.0486229 8.55621e-07 272.891 
-0.37 -0.37 -0.774506 0.497265 0.0488225 0.0484928 -8.52477e-06 0.0486461 8.55083e-07 273.193 
-0.33 -0.49 -0.61127 0.135486 0.0486759 0.0485085 7.6601e-05 0.0486 8.55354e-07 272.848 
-0.33 -0.47 -0.549814 0.320296 0.0487065 0.0485288 7.3282e-05 0.0486257 8.54829e-07 273.16 
-0.33 -0.43 -0.810267 0.0734834 0.0487817 0.0485077 2.78398e-05 0.0486162 8.56354e-07 272.62 
-0.49 -0.37 -0.0334529 0.241935 0.0487994 0.0485692 -7.16708e-05 0.0486854 8.56188e-07 273.061 
-0.47 -0.37 -0.0125141 0.389683 0.0488118 0.0485342 -3.59489e-05 0.0486771 8.5654e-07 272.903 
-0.45 -0.37 -0.231243 0.618448 0.0487888 0.0485112 -3.26526e-05 0.0486445 8.54807e-07 273.272 
-0.49 -0.35 0.0135464 0.371973 0.0488707 0.0485578 -5.18787e-05 0.0487105 8.57079e-07 272.918 
-0.43 -0.37 -0.358075 0.75699 0.0487824 0.0485295 -1.63464e-05 0.0486431 8.54888e-07 273.239 
-0.47 -0.35 -0.0366659 0.564986 0.0488567 0.0484827 -2.8404e-05 0.0486818 8.56117e-07 273.063 
-0.45 -0.35 -0.218125 0.719024 0.0488504 0.0485272 5.2307e-06 0.0487204 8.55752e-07 273.397 
-0.49 -0.33 -0.0687309 0.378632 0.0488468 0.0485073 -1.83256e-05 0.048688 8.57025e-07 272.809 
-0.39 -0.37 -0.52506 0.636475 0.0487872 0.0484355 3.54991e-05 0.048584 8.55564e-07 272.691 
-0.43 -0.35 -0.103309 0.663848 0.0488158 0.0484929 -4.50861e-05 0.0486638 8.56067e-07 272.979 
-0.47 -0.33 -0.203904 0.618359 0.0488964 0.0484996 -1.63336e-05 0.0486821 8.56175e-07 273.047 
-0.41 -0.35 -0.352267 0.796162 0.0487988 0.0484264 4.58562e-05 0.0486234 8.55761e-07 272.849 
-0.45 -0.33 -0.156255 0.814746 0.0488893 0.0484919 -3.62186e-05 0.0486775 8.55988e-07 273.08 
-0.49 -0.31 -0.0574435 0.497988 0.0487245 0.0484715 -8.79592e-05 0.0485632 8.54508e-07 272.911 
-0.39 -0.35 -0.548265 0.990843 0.0488618 0.0484729 -2.12833e-05 0.0486566 8.55549e-07 273.104 
-0.43 -0.33 -0.381851 0.877989 0.0488887 0.0484676 4.16361e-05 0.0486732 8.55436e-07 273.232 
-0.47 -0.31 -0.176014 0.805777 0.0487609 0.0484783 -5.53451e-05 0.048612 8.55082e-07 273.003 
-0.37 -0.35 -0.824233 0.770803 0.0487749 0.0484404 8.00351e-05 0.0485951 8.55854e-07 272.661 
-0.41 -0.33 -0.55035 0.919711 0.0488728 0.0484817 -1.65067e-05 0.0486794 8.56041e-07 273.074 
-0.45 -0.31 -0.192156 0.737604 0.0488082 0.048493 -5.20697e-05 0.0486353 8.55468e-07 273.01 
-0.49 -0.29 -0.0727263 0.705571 0.0487019 0.0484367 -9.18142e-05 0.048582 8.54674e-07 272.964 
-0.35 -0.35 -1.07464 0.876281 0.0487708 0.0483978 4.40635e-05 0.0485844 8.54475e-07 273.041 
-0.39 -0.33 -0.729537 1.16064 0.0488048 0.0483823 4.1053e-05 0.0485752 8.55062e-07 272.802 
-0.43 -0.31 -0.327204 1.18642 0.0488014 0.0484281 -3.49705e-05 0.0486291 8.54924e-07 273.149 
-0.47 -0.29 -0.224456 0.906194 0.0487104 0.0484771 -8.82501e-05 0.0486049 8.55091e-07 272.96 
-0.37 -0.33 -0.648978 1.06899 0.0488793 0.0484815 6.09829e-05 0.0486651 8.55953e-07 273.022 
-0.41 -0.31 -0.679577 1.07643 0.048884 0.0484216 4.38536e-05 0.0486755 8.56392e-07 272.94 
-0.45 -0.29 -0.206956 0.732823 0.0487468 0.0484485 -4.13218e-05 0.0485997 8.54598e-07 273.087 
-0.49 -0.27 -0.188292 0.873895 0.0488025 0.048422 -8.69627e-05 0.048639 8.5543e-07 273.043 
-0.35 -0.33 -0.754286 0.806744 0.0488526 0.0484115 2.30188e-05 0.0486513 8.55847e-07 272.978 
-0.39 -0.31 -0.585801 1.14313 0.0489268 0.0484178 2.77621e-05 0.0486874 8.56098e-07 273.101 
-0.43 -0.29 -0.330793 1.37604 0.0487506 0.048406 -4.51515e-05 0.0485874 8.5508e-07 272.865 
-0.47 -0.27 -0.228315 0.903744 0.0488362 0.0484547 -9.86328e-05 0.0487044 8.56142e-07 273.182 
-0.37 -0.31 -0.663276 0.937278 0.0488881 0.0484349 2.96169e-05 0.048659 8.56215e-07 272.905 
-0.41 -0.29 -0.350194 1.18901 0.0487762 0.0483459 -3.54124e-05 0.0485709 8.54454e-07 272.972 
-0.45 -0.27 -0.323602 0.9638 0.0488266 0.0484192 -6.583e-05 0.0486211 8.55712e-07 272.852 
-0.35 -0.31 -0.882668 1.13063 0.0489067 0.0484434 8.56076e-05 0.0487005 8.55756e-07 273.284 
-0.39 -0.29 -0.367333 1.26184 0.0488024 0.0484531 2.40039e-05 0.048609 8.54143e-07 273.285 
-0.43 -0.27 -0.528982 1.44177 0.0487993 0.0484069 -1.8871e-05 0.0485958 8.54625e-07 273.057 
-0.37 -0.29 -0.651565 1.0171 0.0488193 0.0484243 2.22314e-05 0.0486528 8.54597e-07 273.386 
-0.41 -0.27 -0.498748 1.28092 0.0487696 0.048351 -4.27969e-05 0.0485287 8.54314e-07 272.779 
-0.35 -0.29 -0.991054 1.42523 0.0488317 0.0483744 7.3749e-05 0.048607 8.54576e-07 273.136 
-0.39 -0.27 -0.973079 1.37487 0.0487577 0.0483911 -2.18426e-05 0.0486083 8.54771e-07 273.081 
-0.33 -0.29 -0.941328 1.35294 0.0489001 0.0484467 6.19186e-05 0.0486525 8.55451e-07 273.112 
-0.37 -0.27 -1.13557 1.43617 0.0488346 0.0483873 1.42603e-05 0.0486409 8.55785e-07 272.94 
-0.35 -0.27 -1.21913 1.47941 0.0488608 0.0483821 3.28102e-05 0.0486144 8.55931e-07 272.745 
-0.33 -0.27 -1.43856 1.3951 0.0488462 0.0483873 7.88928e-05 0.0485696 8.55284e-07 272.7 
-0.41 -0.37 -0.263707 0.756083 0.0488255 0.0484566 6.02604e-06 0.0486348 8.55369e-07 273.038 
-0.35 -0.37 -0.766805 1.02424 0.0487894 0.0484548 4.86559e-05 0.0486028 8.55381e-07 272.855 
-0.33 -0.37 -0.87675 0.465392 0.048765 0.0484671 4.58031e-05 0.0485898 8.54852e-07 272.951 
-0.33 -0.35 -1.13281 0.804303 0.0488111 0.0484679 9.38386e-05 0.0486397 8.56237e-07 272.789 
-0.33 -0.31 -1.25268 1.19211 0.0488723 0.0484064 7.79822e-05 0.0486269 8.55117e-07 273.075 
-0.35 -0.25 -1.23991 1.49144 0.0488167 0.0483607 2.82093e-05 0.048601 8.55116e-07 272.93 
-0.31 -0.49 -0.63748 0.0249812 0.04872 0.0486244 6.76823e-05 0.0487212 8.56058e-07 273.304 
-0.29 -0.49 -0.698472 0.0331566 0.0486727 0.0484997 3.433e-05 0.0486101 8.54569e-07 273.155 
-0.27 -0.49 -0.866278 -0.00520823 0.0486693 0.0483809 0.00013401 0.0485267 8.54286e-07 272.777 
-0.31 -0.47 -0.827611 -0.0294946 0.0487236 0.0486094 9.00162e-05 0.0486831 8.55193e-07 273.366 
-0.29 -0.47 -0.688997 0.0211648 0.0486907 0.0484417 0.00013053 0.0485952 8.54325e-07 273.15 
-0.27 -0.47 -0.577726 0.127985 0.0486801 0.0483928 6.87811e-05 0.0485232 8.5331e-07 273.069 
-0.31 -0.45 -0.54596 0.198013 0.0488048 0.0485418 7.73241e-05 0.0486648 8.56132e-07 272.963 
-0.29 -0.45 -0.700729 -0.0277993 0.0487972 0.0484699 0.000128378 0.0486304 8.54813e-07 273.191 
-0.27 -0.45 -1.02995 0.321497 0.0487846 0.0484555 0.000125613 0.0485883 8.54532e-07 273.045 
-0.31 -0.43 -1.02011 0.214754 0.048761 0.0484708 8.32949e-05 0.0486112 8.56353e-07 272.593 
-0.29 -0.43 -1.24623 0.306739 0.0487916 0.0484529 0.000119045 0.0486273 8.55986e-07 272.799 
-0.27 -0.43 -1.19294 0.385776 0.0488162 0.0484745 0.000131001 0.0486377 8.55194e-07 273.111 
-0.31 -0.41 -1.23793 0.39236 0.0487812 0.0484476 9.42608e-05 0.0486105 8.55061e-07 273.001 
-0.25 -0.43 -1.26789 0.306835 0.0487692 0.0484731 0.00013689 0.0486446 8.54001e-07 273.531 
-0.29 -0.41 -1.33874 0.333583 0.0487995 0.0484574 9.93396e-05 0.0486471 8.55647e-07 273.019 
-0.27 -0.41 -1.40368 0.356755 0.0487836 0.0484453 0.000148971 0.0486059 8.55231e-07 272.921 
-0.31 -0.39 -1.13206 0.59978 0.0488225 0.0484311 7.87514e-05 0.0486086 8.55001e-07 273.009 
-0.25 -0.41 -1.40618 0.300703 0.0488038 0.0484931 0.000114898 0.0486439 8.5476e-07 273.285 
-0.29 -0.39 -1.29096 0.278517 0.0488187 0.0483832 0.000105801 0.0486024 8.55796e-07 272.721 
-0.27 -0.39 -1.39943 0.513304 0.0488266 0.0484531 0.000153857 0.0486728 8.55562e-07 273.19 
-0.31 -0.37 -1.09921 0.719797 0.0487219 0.0483824 7.52682e-05 0.0485413 8.5446e-07 272.803 
-0.25 -0.39 -1.55316 0.45485 0.048815 0.0485108 0.000165345 0.0486726 8.55302e-07 273.272 
-0.29 -0.37 -1.32554 0.616522 0.0487441 0.0483804 0.000106716 0.0485396 8.54691e-07 272.721 
-0.27 -0.37 -1.53854 0.550002 0.0488185 0.0484236 7.6249e-05 0.0486188 8.54945e-07 273.084 
-0.31 -0.35 -1.34083 0.726278 0.0488587 0.0483989 4.54377e-05 0.0486313 8.55684e-07 272.919 
-0.29 -0.35 -1.14548 0.84656 0.0488479 0.0483502 5.83754e-05 0.0486227 8.55593e-07 272.899 
-0.27 -0.35 -1.4866 0.786958 0.0488189 0.0484092 9.25457e-05 0.0485977 8.55831e-07 272.683 
-0.31 -0.33 -1.07319 0.891217 0.0488038 0.0484007 5.00142e-05 0.0486094 8.55462e-07 272.866 
-0.29 -0.33 -1.62232 1.02055 0.0487783 0.0482963 7.67079e-05 0.0485441 8.54476e-07 272.814 
-0.27 -0.33 -1.54237 0.755798 0.0487858 0.0484048 0.000143294 0.0485771 8.55453e-07 272.688 
-0.31 -0.31 -1.23289 1.09598 0.0488683 0.0483736 9.36952e-05 0.0486096 8.54585e-07 273.147 
-0.29 -0.31 -1.24483 1.06854 0.0488485 0.0482944 8.43082e-05 0.0486081 8.54994e-07 273.008 
-0.27 -0.31 -1.71347 1.21231 0.0488416 0.0483823 8.44257e-05 0.04861 8.54428e-07 273.2 
-0.31 -0.29 -1.26898 1.24609 0.0488476 0.0483221 8.53407e-05 0.0485802 8.5412e-07 273.131 
-0.25 -0.31 -1.84852 1.12645 0.0488212 0.0484254 0.00015175 0.048636 8.54963e-07 273.175 
-0.29 -0.29 -1.67017 1.31447 0.0488309 0.048323 8.14396e-05 0.0485672 8.53974e-07 273.104 
-0.27 -0.29 -1.66869 1.3004 0.0488603 0.0483519 0.000116387 0.0485753 8.53643e-07 273.256 
-0.31 -0.27 -1.5425 1.55117 0.0488174 0.0483253 0.00010051 0.0486081 8.55138e-07 272.962 
-0.25 -0.29 -1.93812 1.32036 0.0488367 0.0483926 0.000146476 0.048611 8.54614e-07 273.146 
-0.29 -0.27 -1.55652 1.61701 0.0488126 0.0483024 0.000134027 0.0485529 8.53563e-07 273.155 
-0.27 -0.27 -1.95279 1.57204 0.0487574 0.0482993 0.000106964 0.0485331 8.53021e-07 273.217 
-0.25 -0.27 -2.13856 1.4557 0.0487764 0.0483573 0.000145554 0.048586 8.54916e-07 272.909 
-0.33 -0.45 -0.731877 0.121597 0.048801 0.0485766 4.02285e-05 0.0486416 8.56193e-07 272.814 
-0.33 -0.41 -1.26358 0.225362 0.0487915 0.0484671 6.85015e-05 0.048585 8.55158e-07 272.826 
-0.33 -0.39 -0.896236 0.388194 0.0488031 0.0484166 2.3476e-05 0.0485812 8.54912e-07 272.884 
-0.33 -0.33 -0.89287 1.03618 0.0488195 0.0484407 3.21954e-05 0.0486135 8.54723e-07 273.125 
-0.25 -0.49 -0.833148 -0.0490017 0.0486608 0.0484828 0.000122423 0.0486071 8.55068e-07 272.979 
-0.25 -0.47 -0.795982 0.0927349 0.048713 0.0484972 5.68244e-05 0.048606 8.55063e-07 272.974 
-0.25 -0.45 -1.09674 0.157615 0.0487319 0.0484561 6.53202e-05 0.0486139 8.54229e-07 273.286 
-0.25 -0.37 -1.76411 0.651695 0.0488571 0.0485224 0.000127547 0.0486765 8.55404e-07 273.262 
-0.25 -0.35 -1.65954 0.802306 0.0488165 0.0484421 0.000134144 0.0486056 8.54692e-07 273.091 
-0.25 -0.33 -1.70442 1.1037 0.0487444 0.0484555 7.5297e-05 0.0486398 8.54982e-07 273.19 
-0.49 -0.25 0.0610898 1.16128 0.04877 0.0484534 -0.000137404 0.0486566 8.5526e-07 273.196 
-0.47 -0.25 -0.264726 1.01278 0.0488252 0.048408 -9.84677e-05 0.0486089 8.55192e-07 272.949 
-0.45 -0.25 -0.547299 1.06892 0.0487714 0.0483623 -5.90957e-05 0.0486084 8.55332e-07 272.902 
-0.49 -0.23 -0.00221919 1.13037 0.0487373 0.0484615 -0.000173874 0.0486031 8.55154e-07 272.929 
-0.47 -0.23 -0.132103 1.33411 0.0487299 0.0483133 -0.000132923 0.0485207 8.54012e-07 272.831 
-0.45 -0.23 -0.492214 1.25641 0.0487827 0.048351 -7.87461e-05 0.0486003 8.54414e-07 273.15 
-0.49 -0.21 -0.203046 1.31589 0.0487399 0.0484521 -0.000172714 0.0486108 8.56043e-07 272.689 
-0.43 -0.23 -0.561797 1.26619 0.048817 0.0484151 -8.62662e-05 0.0486057 8.54746e-07 273.074 
-0.47 -0.21 -0.325169 1.45752 0.048754 0.0482725 -0.000149379 0.048568 8.54707e-07 272.875 
-0.41 -0.23 -0.767619 1.73114 0.0488443 0.0483421 -3.61167e-05 0.0485858 8.54559e-07 273.022 
-0.45 -0.21 -0.225126 1.30553 0.048791 0.0483048 -0.000108158 0.0485821 8.54624e-07 272.98 
-0.49 -0.19 0.00493833 1.43166 0.0488261 0.0484205 -0.000146502 0.0486117 8.56019e-07 272.702 
-0.39 -0.23 -0.794993 1.90886 0.0488245 0.0483262 -6.27271e-06 0.0486009 8.54168e-07 273.232 
-0.43 -0.21 -0.678053 1.58014 0.0488307 0.0484221 -6.96057e-05 0.048635 8.55316e-07 273.057 
-0.47 -0.19 -0.0380901 1.42939 0.0488009 0.0482725 -0.000128249 0.0485754 8.55058e-07 272.804 
-0.41 -0.21 -0.86556 1.81113 0.0488168 0.0482729 -4.406e-05 0.0485817 8.54517e-07 273.013 
-0.45 -0.19 -0.324299 1.76547 0.0488028 0.0483167 -0.000113876 0.048572 8.54275e-07 273.035 
-0.49 -0.17 0.0702557 1.31444 0.0487853 0.0484062 -0.000161579 0.0486046 8.5548e-07 272.834 
-0.39 -0.21 -0.90579 2.0153 0.048855 0.0483381 -2.64234e-05 0.048624 8.55624e-07 272.897 
-0.43 -0.19 -0.675255 1.91184 0.048798 0.0483628 -0.000122391 0.0486098 8.55358e-07 272.902 
-0.47 -0.17 -0.162215 1.89336 0.0488 0.0482265 -0.000138968 0.0485332 8.53763e-07 272.981 
-0.41 -0.19 -0.848436 1.82487 0.0488299 0.0482779 -5.34229e-05 0.0485555 8.5445e-07 272.887 
-0.45 -0.17 -0.347122 1.89224 0.0488152 0.0483166 -0.000151439 0.0485995 8.54602e-07 273.085 
-0.49 -0.15 -0.0213217 1.37477 0.0486907 0.0483096 -0.00016016 0.0485168 8.53621e-07 272.934 
-0.39 -0.19 -0.972685 2.10207 0.0488007 0.0482782 -4.8509e-05 0.0485407 8.54128e-07 272.906 
-0.43 -0.17 -0.513229 2.09706 0.0487988 0.0483086 -9.32934e-05 0.0486182 8.55032e-07 273.053 
-0.47 -0.15 0.113005 1.84312 0.0487254 0.048243 -0.000141983 0.0484482 8.533e-07 272.65 
-0.41 -0.17 -0.634975 1.96388 0.0487598 0.0482667 -6.22984e-05 0.0485462 8.53328e-07 273.193 
-0.45 -0.15 -0.240325 2.25364 0.0487595 0.0483308 -0.000148002 0.0485566 8.53748e-07 273.117 
-0.39 -0.17 -0.83187 2.23265 0.0487739 0.0482455 -6.02896e-05 0.048519 8.53306e-07 273.047 
-0.43 -0.15 -0.38661 2.11639 0.0487283 0.04819 -6.13639e-05 0.048488 8.53796e-07 272.716 
-0.41 -0.15 -0.598953 2.26035 0.0487864 0.0482917 -6.25992e-05 0.048556 8.54133e-07 272.99 
-0.39 -0.15 -0.862688 2.65151 0.0487714 0.0482692 -6.68089e-05 0.0485155 8.53835e-07 272.858 
-0.43 -0.25 -0.357689 1.36775 0.0487942 0.0484561 -1.17987e-05 0.0486263 8.55602e-07 272.916 
-0.41 -0.25 -0.413186 1.53299 0.0488368 0.0483023 -4.23665e-05 0.0485972 8.55164e-07 272.893 
-0.39 -0.25 -0.767083 1.79068 0.0488755 0.0484212 -3.73105e-05 0.048656 8.55949e-07 272.972 
-0.33 -0.25 -1.28491 1.64902 0.0487917 0.0483178 8.69338e-05 0.0485795 8.54631e-07 272.964 
-0.37 -0.25 -1.12425 1.55737 0.0488102 0.0483288 2.8175e-06 0.0485836 8.55074e-07 272.845 
-0.37 -0.23 -0.921217 1.91177 0.0488557 0.0483743 1.08471e-05 0.0486577 8.562e-07 272.902 
-0.35 -0.23 -1.11091 1.78777 0.0488165 0.0482832 2.55737e-05 0.048592 8.5517e-07 272.862 
-0.37 -0.21 -1.00482 1.99805 0.0488161 0.0483041 6.62929e-06 0.0485944 8.54841e-07 272.98 
-0.35 -0.21 -1.05023 1.87676 0.0488599 0.0483032 1.17601e-05 0.0485922 8.54801e-07 272.98 
-0.33 -0.21 -1.21549 2.12972 0.0488895 0.0482889 2.96004e-05 0.0486105 8.55515e-07 272.855 
-0.37 -0.19 -1.04774 1.99641 0.0488747 0.0483245 5.72031e-06 0.0486082 8.55699e-07 272.784 
-0.35 -0.19 -1.13674 2.03585 0.0488707 0.0482762 -1.51571e-06 0.0485606 8.5528e-07 272.651 
-0.33 -0.19 -1.27396 2.28226 0.0488294 0.0482128 6.17083e-05 0.0485467 8.5476e-07 272.738 
-0.37 -0.17 -1.01915 2.24081 0.0488002 0.0482645 -6.07682e-05 0.0485493 8.53675e-07 273.099 
-0.35 -0.17 -1.44351 2.3898 0.0487944 0.048231 3.65498e-05 0.048531 8.53906e-07 272.923 
-0.33 -0.17 -1.66815 2.3839 0.048809 0.0482021 5.71864e-05 0.0485236 8.53929e-07 272.874 
-0.37 -0.15 -1.25497 2.41914 0.0487618 0.0482125 -1.19572e-05 0.0484565 8.5203e-07 273.104 
-0.35 -0.15 -1.33608 2.53036 0.0487369 0.0481817 1.56047e-06 0.0484725 8.53625e-07 272.684 
-0.33 -0.15 -1.58293 2.51442 0.0487646 0.0481888 1.85322e-05 0.0485016 8.54578e-07 272.543 
-0.37 -0.13 -1.17057 2.60615 0.0487697 0.0481662 -3.95157e-06 0.0484708 8.53254e-07 272.792 
-0.35 -0.13 -1.48004 2.90915 0.0487572 0.0481687 4.8073e-07 0.0484636 8.53908e-07 272.543 
-0.33 -0.13 -1.69213 2.6346 0.0487568 0.0481958 4.53827e-05 0.0484526 8.53652e-07 272.563 
-0.37 -0.11 -1.08233 3.08011 0.0487908 0.0481523 -2.96046e-06 0.0484905 8.52836e-07 273.037 
-0.35 -0.11 -1.57876 2.9751 0.0487594 0.0481913 1.82286e-05 0.0484673 8.53471e-07 272.704 
-0.33 -0.11 -1.7215 2.96714 0.048765 0.0481222 -9.07885e-06 0.0484151 8.5316e-07 272.509 
-0.35 -0.09 -1.38212 3.37967 0.0487663 0.0482184 1.80975e-05 0.0485032 8.52671e-07 273.161 
-0.49 -0.13 -0.101323 1.47018 0.0486762 0.0482527 -0.000196197 0.048468 8.5341e-07 272.727 
-0.47 -0.13 -0.109411 1.89952 0.0486936 0.0482299 -0.000184966 0.048442 8.53204e-07 272.646 
-0.45 -0.13 -0.0731473 2.42037 0.0487227 0.0482967 -0.000149902 0.0484824 8.53571e-07 272.756 
-0.49 -0.11 0.0623043 1.48102 0.0487221 0.0482595 -0.000218251 0.0484729 8.52412e-07 273.074 
-0.43 -0.13 -0.428363 2.42951 0.0487389 0.0481374 -0.000129899 0.0484602 8.52755e-07 272.892 
-0.47 -0.11 -0.283984 2.10735 0.0487004 0.0482315 -0.000194884 0.0484883 8.53036e-07 272.961 
-0.41 -0.13 -0.933874 2.42725 0.0487967 0.0482748 -9.51201e-05 0.0485383 8.53414e-07 273.121 
-0.45 -0.11 -0.472155 2.3832 0.0487507 0.0482281 -0.00018049 0.0485071 8.52993e-07 273.08 
-0.49 -0.09 -0.355961 1.79203 0.0485862 0.0482329 -0.000208577 0.0484192 8.52202e-07 272.838 
-0.39 -0.13 -1.01887 2.81684 0.0488075 0.0482558 -3.0556e-05 0.0485616 8.53848e-07 273.113 
-0.43 -0.11 -0.448979 2.86185 0.0487696 0.0481386 -0.00013967 0.0484776 8.5313e-07 272.87 
-0.47 -0.09 -0.494468 2.39638 0.0486495 0.0482621 -0.000213611 0.048493 8.53276e-07 272.91 
-0.41 -0.11 -0.471565 2.78126 0.0487428 0.0482269 -9.9406e-05 0.0484949 8.53248e-07 272.93 
-0.45 -0.09 -0.617894 2.45785 0.0486068 0.048156 -0.000182406 0.0483704 8.52134e-07 272.585 
-0.39 -0.11 -0.980079 2.84839 0.0487288 0.0481661 -5.72984e-05 0.0485164 8.5278e-07 273.201 
-0.43 -0.09 -0.718473 2.75731 0.0486035 0.0480877 -0.000152479 0.0483992 8.52284e-07 272.699 
-0.41 -0.09 -0.830013 3.03937 0.0486869 0.0481672 -0.000139554 0.0484521 8.52547e-07 272.914 
-0.39 -0.09 -0.781414 3.03815 0.0487233 0.0481603 -4.93648e-05 0.0484609 8.52404e-07 273.009 
-0.37 -0.09 -1.24411 3.28984 0.0486768 0.0480774 -1.64018e-05 0.0483941 8.51091e-07 273.053 
-0.35 -0.03 -1.85507 3.84176 0.0486379 0.0481373 -4.59127e-05 0.0483603 8.51215e-07 272.822 
-0.37 -0.07 -1.30793 3.62849 0.048689 0.0480657 -6.12944e-05 0.0484127 8.51733e-07 272.952 
-0.41 -0.05 -0.959323 3.3212 0.0486754 0.0480726 -0.000135992 0.0483811 8.51415e-07 272.876 
-0.45 -0.03 -0.615891 3.28107 0.0485609 0.0480215 -0.000239983 0.0483349 8.50755e-07 272.826 
-0.35 -0.07 -1.53421 3.52992 0.0487249 0.0481568 -3.05683e-05 0.0484612 8.52511e-07 272.976 
-0.39 -0.05 -1.23611 3.42201 0.04867 0.0480897 -9.00087e-05 0.0483471 8.50897e-07 272.85 
-0.43 -0.03 -0.708332 3.637 0.0485726 0.0480755 -0.000200442 0.0483369 8.5044e-07 272.939 
-0.33 -0.07 -1.74837 3.52692 0.0488061 0.048131 1.8768e-05 0.0484633 8.52312e-07 273.051 
-0.37 -0.05 -1.44995 3.79868 0.0486426 0.0480443 -9.27517e-05 0.0483322 8.49941e-07 273.072 
-0.41 -0.03 -0.849029 3.58427 0.0486294 0.0480552 -0.000122366 0.048317 8.50695e-07 272.745 
-0.35 -0.05 -1.50581 3.58922 0.0485686 0.0481167 -7.29107e-05 0.0483454 8.51232e-07 272.733 
-0.39 -0.03 -1.34697 3.85727 0.0486163 0.0480564 -0.000102951 0.0483285 8.4951e-07 273.191 
-0.33 -0.05 -1.85358 3.84838 0.0485719 0.048035 -1.91038e-05 0.0483167 8.51729e-07 272.412 
-0.37 -0.03 -1.65928 3.86175 0.0486449 0.0479797 -3.12352e-05 0.048267 8.4993e-07 272.708 
-0.33 -0.03 -1.94643 4.12649 0.0486072 0.0479706 3.20816e-06 0.0483242 8.50073e-07 272.985 
-0.49 -0.07 0.0894663 2.07208 0.0485933 0.0482316 -0.000223312 0.0484065 8.51479e-07 272.998 
-0.47 -0.07 -0.124978 2.37894 0.0485919 0.0482372 -0.000200967 0.0484723 8.5267e-07 272.988 
-0.45 -0.07 -0.311777 2.73849 0.048647 0.0481235 -0.000180442 0.0483832 8.51644e-07 272.814 
-0.49 -0.05 -0.0690641 2.16161 0.0484819 0.0481819 -0.000302718 0.0483182 8.50263e-07 272.89 
-0.43 -0.07 -0.783382 3.12498 0.0486088 0.0481335 -0.000159288 0.0483998 8.51186e-07 273.055 
-0.47 -0.05 -0.279363 2.62359 0.0485853 0.0482446 -0.000286317 0.0484184 8.51936e-07 272.919 
-0.41 -0.07 -0.993386 3.13398 0.0485605 0.0481146 -0.000125956 0.0483221 8.50486e-07 272.841 
-0.45 -0.05 -0.498845 2.9432 0.0485899 0.0480349 -0.000196839 0.0483349 8.49668e-07 273.176 
-0.49 -0.03 -0.0791244 2.32074 0.0485406 0.0481428 -0.000329213 0.0483311 8.50496e-07 272.888 
-0.39 -0.07 -1.17222 3.12776 0.048598 0.0480701 -0.000111928 0.0483477 8.51392e-07 272.694 
-0.43 -0.05 -0.611995 3.4095 0.0486868 0.0481432 -0.000152902 0.048457 8.51857e-07 273.162 
-0.47 -0.03 -0.259824 2.81214 0.0485567 0.0481543 -0.000275021 0.0483452 8.5079e-07 272.873 
-0.27 -0.07 -2.61007 3.55612 0.0486718 0.0481477 0.000104501 0.0484105 8.5254e-07 272.681 
-0.31 -0.05 -2.15327 3.97022 0.0486281 0.0480316 8.17292e-05 0.0483519 8.51347e-07 272.733 
-0.27 -0.09 -2.51643 3.39632 0.0487404 0.0481784 7.78123e-05 0.0484523 8.53599e-07 272.578 
-0.31 -0.07 -2.1402 3.50822 0.0487627 0.04808 4.52026e-05 0.0484367 8.52676e-07 272.785 
-0.29 -0.07 -2.49809 3.78615 0.0486971 0.0481365 0.000117435 0.0484205 8.52134e-07 272.867 
-0.25 -0.07 -2.5535 2.96152 0.0486856 0.0481923 0.000110334 0.0484209 8.52003e-07 272.912 
-0.29 -0.05 -2.22735 3.76706 0.0486809 0.0481271 0.000111758 0.048382 8.5184e-07 272.745 
-0.27 -0.05 -2.32013 3.60805 0.0486409 0.0481392 8.77497e-05 0.048374 8.5113e-07 272.927 
-0.31 -0.03 -2.34163 4.24093 0.0485934 0.047998 -5.88888e-06 0.0482651 8.49506e-07 272.833 
-0.25 -0.05 -2.5624 3.14919 0.0486746 0.0481875 0.000104921 0.0484312 8.51695e-07 273.068 
-0.29 -0.03 -2.32224 3.80901 0.048592 0.048058 5.38095e-05 0.0483274 8.5015e-07 272.978 
-0.27 -0.03 -2.41791 3.67035 0.0486578 0.0481696 0.000100569 0.0484403 8.53034e-07 272.691 
-0.25 -0.03 -2.30848 3.28949 0.0486356 0.0481728 0.000103144 0.048408 8.52155e-07 272.79 
-0.27 -0.01 -2.04363 3.84837 0.0485197 0.0481228 7.6639e-05 0.0483822 8.51564e-07 272.834 
-0.31 -0.25 -1.5901 1.76386 0.0488529 0.048313 0.000113205 0.0485804 8.54467e-07 273.021 
-0.29 -0.25 -1.90333 1.76006 0.048885 0.0483094 0.000124857 0.0485851 8.54164e-07 273.144 
-0.27 -0.25 -1.82892 1.6828 0.0488938 0.0483029 0.000111146 0.0486157 8.5444e-07 273.228 
-0.29 -0.11 -2.26717 2.96679 0.0488185 0.0481862 5.53249e-05 0.0485123 8.54838e-07 272.52 
-0.33 -0.09 -1.71503 3.15121 0.0487564 0.0481265 1.93952e-05 0.0484235 8.52663e-07 272.715 
-0.27 -0.11 -2.4206 3.23745 0.0487792 0.0481933 0.000101335 0.048479 8.53513e-07 272.756 
-0.31 -0.09 -1.94975 3.37085 0.0487003 0.0481139 3.73361e-05 0.0484111 8.51397e-07 273.051 
-0.29 -0.09 -2.20892 3.35746 0.0487019 0.0481639 5.12537e-05 0.0484249 8.52668e-07 272.721 
-0.33 -0.23 -1.44222 1.63855 0.0488485 0.0483065 8.72967e-05 0.0486273 8.5572e-07 272.884 
-0.31 -0.23 -1.47557 2.01855 0.0488568 0.0482744 4.47723e-05 0.0485999 8.55432e-07 272.822 
-0.29 -0.23 -1.46644 1.86194 0.0488405 0.0483474 9.41551e-05 0.0486313 8.55345e-07 273.026 
-0.27 -0.23 -1.84942 1.7251 0.0488537 0.0482835 9.0327e-05 0.0485811 8.54439e-07 273.034 
-0.31 -0.21 -1.60398 2.13159 0.0488594 0.0482355 6.505e-05 0.0485919 8.5552e-07 272.75 
-0.29 -0.21 -1.87677 1.9626 0.0489063 0.0483582 6.99522e-05 0.0486677 8.56381e-07 272.9 
-0.27 -0.21 -1.79932 1.94452 0.0488894 0.0482906 0.000140814 0.0486059 8.55028e-07 272.985 
-0.31 -0.19 -1.39003 2.29239 0.0488352 0.0482787 4.79607e-05 0.0485612 8.54599e-07 272.871 
-0.25 -0.21 -2.05414 1.65793 0.048863 0.0482638 0.000112025 0.0485948 8.54998e-07 272.932 
-0.29 -0.19 -1.61871 2.31908 0.0487963 0.0482813 0.000105279 0.0485383 8.55217e-07 272.545 
-0.27 -0.19 -1.89131 1.98372 0.0487873 0.0482526 0.00015349 0.0485175 8.53117e-07 273.099 
-0.31 -0.17 -1.62267 2.18576 0.0487837 0.0482566 4.33301e-05 0.0485261 8.54305e-07 272.768 
-0.25 -0.19 -2.07455 2.07882 0.0488102 0.0482855 0.000112087 0.0485455 8.54032e-07 272.964 
-0.29 -0.17 -1.70687 2.51793 0.0488089 0.0482574 9.56693e-05 0.0485622 8.54208e-07 273.002 
-0.27 -0.17 -2.09997 2.55032 0.0487767 0.0482377 0.00011501 0.0485447 8.54382e-07 272.848 
-0.31 -0.15 -1.83205 2.48376 0.0487747 0.0482187 6.4157e-05 0.0485126 8.54166e-07 272.736 
-0.25 -0.17 -2.61393 2.29235 0.0488368 0.0482922 0.000120203 0.0485385 8.53328e-07 273.15 
-0.29 -0.15 -2.0288 2.63753 0.0487615 0.0481675 0.000129219 0.0484684 8.53597e-07 272.669 
-0.27 -0.15 -2.23618 2.87907 0.048799 0.0483244 9.22226e-05 0.0485576 8.54513e-07 272.878 
-0.31 -0.13 -1.93791 2.79176 0.0487489 0.0481795 5.93889e-05 0.0484589 8.52721e-07 272.896 
-0.25 -0.15 -2.38021 2.54973 0.0488145 0.0482907 0.000101687 0.0485347 8.54221e-07 272.843 
-0.29 -0.13 -2.22514 2.85349 0.048809 0.0481663 5.05953e-05 0.0485002 8.54643e-07 272.514 
-0.27 -0.13 -2.54142 3.00212 0.048812 0.0482745 7.46101e-05 0.0485479 8.54583e-07 272.801 
-0.31 -0.11 -2.02925 3.23637 0.048846 0.048176 3.83419e-05 0.048505 8.5285e-07 273.114 
-0.25 -0.13 -2.63866 2.71559 0.0488276 0.0482571 0.000133049 0.0485199 8.53824e-07 272.886 
-0.25 -0.25 -1.81385 1.46864 0.048919 0.0483669 0.000129869 0.0486718 8.56093e-07 273.015 
-0.25 -0.23 -1.99004 1.68604 0.048841 0.0482927 0.00011199 0.0485786 8.54694e-07 272.938 
-0.25 -0.11 -2.54002 2.84656 0.0487982 0.0482489 7.40245e-05 0.0484839 8.52577e-07 273.083 
-0.25 -0.09 -2.75688 2.97367 0.0487123 0.0482371 0.000155128 0.0484635 8.52239e-07 273.076 
-0.25 -0.01 -2.38412 3.45728 0.0485259 0.0481347 0.000118808 0.048334 8.51449e-07 272.599 
-0.23 -0.49 -0.886212 0.0735665 0.0486942 0.048556 0.00013206 0.04861 8.54635e-07 273.134 
-0.21 -0.49 -0.91582 -0.00523815 0.0487079 0.0485195 0.00014329 0.0486055 8.53554e-07 273.454 
-0.19 -0.49 -1.02793 0.0593255 0.04873 0.0485974 0.00021386 0.0486479 8.54753e-07 273.309 
-0.23 -0.47 -0.847526 0.0767899 0.0487319 0.0485211 0.00010301 0.0486443 8.55921e-07 272.915 
-0.17 -0.49 -1.06844 0.0826796 0.0487138 0.0486153 0.000130503 0.0486638 8.5552e-07 273.153 
-0.21 -0.47 -1.10419 0.19691 0.0487474 0.0485208 0.000139649 0.0486317 8.54905e-07 273.17 
-0.15 -0.49 -0.981897 -0.0562222 0.0487001 0.0486145 0.000199592 0.0486432 8.56085e-07 272.857 