ITEM: TIMESTEP
929000
ITEM: NUMBER OF CELLS
2500
ITEM: BOX BOUNDS ss ss pp
-0.5 0.5
-0.5 0.5
-0.5 0.5
ITEM: CELLS xc yc f_U[*] f_V[*] f_Tau[1] f_Tau[2] f_Tau[3] f_Press[*] f_Mrho[*] f_Ttra[*] 
-0.49 -0.49 -0.0775702 0.00714059 0.0486926 0.0486037 -5.74375e-05 0.0487263 8.5596e-07 273.363 
-0.47 -0.49 -0.0526363 0.056942 0.0486351 0.0485777 -2.11087e-05 0.048624 8.55349e-07 272.984 
-0.45 -0.49 -0.0790851 -0.0556608 0.0486324 0.0485514 1.1591e-05 0.0485768 8.55043e-07 272.817 
-0.49 -0.47 0.0875894 -0.036055 0.0487038 0.0485908 -2.74129e-05 0.048653 8.55341e-07 273.149 
-0.43 -0.49 -0.0889491 0.0428653 0.0486109 0.0485759 -8.28079e-06 0.0485892 8.55007e-07 272.898 
-0.47 -0.47 0.0305242 0.0714861 0.0487266 0.0485535 -2.22968e-05 0.0486881 8.5486e-07 273.5 
-0.41 -0.49 -0.138456 -0.0206058 0.0486588 0.0485217 4.35832e-05 0.0485876 8.55124e-07 272.852 
-0.45 -0.47 -0.0151921 0.120002 0.0486988 0.0485477 2.9861e-05 0.0486255 8.54917e-07 273.131 
-0.49 -0.45 -0.0421919 -0.0504178 0.0487555 0.0486051 -1.43627e-05 0.048683 8.55595e-07 273.237 
-0.39 -0.49 -0.148232 0.0533398 0.0486927 0.0485071 1.2158e-06 0.0485926 8.55061e-07 272.9 
-0.43 -0.47 -0.0654814 -0.0234105 0.0486888 0.0485568 -5.70526e-06 0.048638 8.54869e-07 273.216 
-0.47 -0.45 -0.0757929 0.220516 0.048733 0.0485096 3.39187e-05 0.0486486 8.55139e-07 273.19 
-0.37 -0.49 -0.26338 0.113612 0.0487085 0.0485344 8.22786e-06 0.0486004 8.55506e-07 272.801 
-0.41 -0.47 -0.25976 0.222 0.0486784 0.0485145 2.44521e-05 0.0486217 8.56023e-07 272.756 
-0.45 -0.45 -0.201668 0.0555811 0.0487856 0.0485854 -8.74709e-06 0.0486977 8.56702e-07 272.966 
-0.49 -0.43 -0.0578621 0.0825855 0.0487153 0.0485345 -2.64648e-05 0.0486461 8.56033e-07 272.89 
-0.35 -0.49 -0.351242 -0.0201064 0.0487197 0.0485431 7.54347e-05 0.048593 8.55256e-07 272.84 
-0.39 -0.47 -0.523518 0.204359 0.0486827 0.0485011 1.31109e-05 0.048589 8.54846e-07 272.948 
-0.43 -0.45 -0.347919 0.255352 0.048814 0.0485508 2.63394e-05 0.04866 8.54923e-07 273.323 
-0.47 -0.43 -0.176935 0.204864 0.0487476 0.0485301 -2.58809e-05 0.0486846 8.56608e-07 272.923 
-0.37 -0.47 -0.549012 0.125733 0.0486631 0.0484725 8.56219e-06 0.0485434 8.54336e-07 272.855 
-0.41 -0.45 -0.389164 0.329092 0.0487598 0.0485144 1.392e-05 0.048646 8.55254e-07 273.138 
-0.45 -0.43 -0.306162 0.388355 0.0487423 0.0486362 -2.97611e-05 0.0486886 8.56655e-07 272.93 
-0.49 -0.41 -0.0799605 0.312116 0.0487357 0.0484769 -2.20898e-05 0.0486094 8.55871e-07 272.736 
-0.35 -0.47 -0.736753 0.0965304 0.0487262 0.04853 7.20843e-05 0.0486289 8.55324e-07 273.02 
-0.39 -0.45 -0.42807 0.204416 0.0487416 0.0484745 3.40846e-05 0.0486065 8.55667e-07 272.784 
-0.43 -0.43 -0.42317 0.307266 0.0487487 0.0484713 1.43342e-05 0.0486086 8.55708e-07 272.784 
-0.47 -0.41 -0.335189 0.305393 0.0487782 0.0486096 -5.24959e-05 0.0487133 8.57223e-07 272.888 
-0.37 -0.45 -0.636306 0.298642 0.0486938 0.0485374 3.80366e-05 0.0486114 8.55443e-07 272.884 
-0.41 -0.43 -0.525348 0.32041 0.0488112 0.0485512 1.7642e-05 0.0486627 8.56089e-07 272.965 
-0.45 -0.41 -0.35106 0.330903 0.0488179 0.0485337 1.15745e-06 0.0486779 8.56663e-07 272.868 
-0.49 -0.39 -0.00349952 0.335568 0.0487546 0.0485001 -4.33036e-05 0.0486353 8.56069e-07 272.818 
-0.35 -0.45 -0.689128 0.196078 0.0486766 0.0484396 2.56262e-05 0.0485478 8.55151e-07 272.62 
-0.39 -0.43 -0.493711 0.302316 0.0488072 0.0484369 1.52832e-05 0.0486065 8.54781e-07 273.067 
-0.43 -0.41 -0.45422 0.442533 0.048782 0.0485474 -1.72801e-05 0.0486678 8.55701e-07 273.118 
-0.47 -0.39 0.02405 0.325074 0.0487734 0.0486072 -7.49016e-05 0.048678 8.5693e-07 272.783 
-0.37 -0.43 -0.627221 0.373819 0.0488339 0.0485161 6.49484e-05 0.0486469 8.56103e-07 272.872 
-0.41 -0.41 -0.581853 0.31388 0.0487672 0.0484801 4.94396e-06 0.0486023 8.55033e-07 272.963 
-0.45 -0.39 -0.0150616 0.640006 0.0487687 0.04845 -3.15221e-05 0.048624 8.55391e-07 272.971 
-0.35 -0.43 -0.76242 0.323783 0.0488332 0.0485082 -2.37689e-07 0.0486392 8.56413e-07 272.731 
-0.39 -0.41 -0.577585 0.327211 0.04881 0.048471 1.71541e-05 0.0486092 8.55473e-07 272.862 
-0.43 -0.39 -0.237899 0.528703 0.0488327 0.0485935 1.8062e-05 0.0487134 8.56848e-07 273.008 
-0.37 -0.41 -0.564564 0.558762 0.0488034 0.0484728 1.31436e-05 0.0486252 8.55487e-07 272.947 
-0.41 -0.39 -0.383601 0.563758 0.0487697 0.0484315 -5.28526e-06 0.0486134 8.55551e-07 272.86 
-0.35 -0.41 -0.956308 0.527974 0.0487625 0.0485276 1.90773e-05 0.0485845 8.55592e-07 272.685 
-0.39 -0.39 -0.649388 0.335655 0.0487741 0.0484693 1.91545e-05 0.0486208 8.55945e-07 272.776 
-0.37 -0.39 -0.729527 0.560171 0.0487791 0.0484648 4.45114e-05 0.0485909 8.54672e-07 273.015 
-0.35 -0.39 -0.639122 0.733482 0.0488327 0.048536 8.80908e-05 0.0486266 8.55842e-07 272.842 
-0.37 -0.37 -0.761117 0.494221 0.0488187 0.0484849 -6.01826e-06 0.048644 8.55117e-07 273.171 
-0.33 -0.49 -0.608257 0.114652 0.0486811 0.0485069 7.14772e-05 0.0485976 8.55098e-07 272.916 
-0.33 -0.47 -0.580269 0.275914 0.0486865 0.0485113 7.32333e-05 0.0486119 8.54646e-07 273.141 
-0.33 -0.43 -0.749873 0.0696508 0.0487678 0.0485079 2.55847e-05 0.0486081 8.56356e-07 272.574 
-0.49 -0.37 -0.01894 0.28518 0.0488144 0.0485799 -6.75332e-05 0.0486874 8.56106e-07 273.098 
-0.47 -0.37 -0.00891292 0.395067 0.0488198 0.0485283 -3.80887e-05 0.0486824 8.56488e-07 272.949 
-0.45 -0.37 -0.223232 0.635138 0.0487853 0.0484838 -3.29291e-05 0.0486354 8.54666e-07 273.267 
-0.49 -0.35 0.00578685 0.406387 0.048876 0.0485763 -5.50742e-05 0.0487181 8.57068e-07 272.964 
-0.43 -0.37 -0.35262 0.811099 0.0487857 0.0485252 -2.21362e-05 0.0486521 8.54972e-07 273.262 
-0.47 -0.35 -0.0214875 0.569301 0.0488604 0.0484889 -2.02583e-05 0.0486851 8.55949e-07 273.136 
-0.45 -0.35 -0.236811 0.765069 0.0488451 0.0485012 4.25397e-06 0.0486976 8.55673e-07 273.294 
-0.49 -0.33 -0.0582534 0.414071 0.048835 0.0485166 -1.65162e-05 0.0486942 8.57138e-07 272.808 
-0.39 -0.37 -0.542627 0.619173 0.0487752 0.048431 3.58897e-05 0.0485783 8.55493e-07 272.682 
-0.43 -0.35 -0.130873 0.645585 0.0488144 0.0484914 -5.31539e-05 0.0486609 8.56057e-07 272.965 
-0.47 -0.33 -0.211433 0.617458 0.0488941 0.0485032 -2.09137e-05 0.0486829 8.56045e-07 273.092 
-0.41 -0.35 -0.343843 0.804358 0.0488 0.0484395 4.58569e-05 0.0486264 8.55598e-07 272.919 
-0.45 -0.33 -0.15232 0.841146 0.048907 0.0484853 -3.52283e-05 0.0486755 8.56108e-07 273.031 
-0.49 -0.31 -0.0666895 0.528774 0.0487467 0.0484835 -9.07128e-05 0.0485774 8.5453e-07 272.984 
-0.39 -0.35 -0.526708 0.953034 0.0488646 0.0484727 -1.45578e-05 0.0486607 8.55653e-07 273.094 
-0.43 -0.33 -0.379561 0.830817 0.048903 0.0484714 3.37312e-05 0.0486705 8.55494e-07 273.199 
-0.47 -0.31 -0.193565 0.789806 0.0487814 0.0484954 -5.95929e-05 0.0486254 8.55194e-07 273.041 
-0.37 -0.35 -0.770109 0.755031 0.0487753 0.0484383 7.1929e-05 0.0485997 8.55733e-07 272.725 
-0.41 -0.33 -0.557276 0.905661 0.0488658 0.0484689 -1.1527e-05 0.0486735 8.55856e-07 273.101 
-0.45 -0.31 -0.202482 0.759742 0.048819 0.0484862 -5.65622e-05 0.0486405 8.55436e-07 273.049 
-0.49 -0.29 -0.0758049 0.761241 0.048726 0.0484598 -9.09158e-05 0.0485904 8.54777e-07 272.978 
-0.35 -0.35 -0.989668 0.792847 0.048771 0.0484278 3.15081e-05 0.0486033 8.54769e-07 273.054 
-0.39 -0.33 -0.709418 1.14533 0.0488014 0.0483952 4.71983e-05 0.0485876 8.5526e-07 272.808 
-0.43 -0.31 -0.32986 1.13933 0.0487991 0.0484138 -3.07584e-05 0.0486227 8.55066e-07 273.067 
-0.47 -0.29 -0.209205 0.8352 0.0487163 0.0484802 -8.82183e-05 0.0485959 8.54885e-07 272.975 
-0.37 -0.33 -0.668803 1.05669 0.0488737 0.0484884 4.64616e-05 0.0486688 8.55838e-07 273.08 
-0.41 -0.31 -0.668901 1.03437 0.0488896 0.0484133 5.17573e-05 0.0486805 8.56446e-07 272.951 
-0.45 -0.29 -0.203455 0.707736 0.0487368 0.0484387 -3.18564e-05 0.0485808 8.54383e-07 273.05 
-0.49 -0.27 -0.184788 0.895423 0.0488128 0.0484355 -8.73714e-05 0.0486568 8.55906e-07 272.99 
-0.35 -0.33 -0.738925 0.702748 0.0488541 0.048437 1.21639e-05 0.048658 8.56042e-07 272.954 
-0.39 -0.31 -0.584292 1.0908 0.0489305 0.0484481 2.48054e-05 0.0486962 8.56193e-07 273.12 
-0.43 -0.29 -0.318383 1.33005 0.048752 0.048397 -4.32815e-05 0.0485837 8.54965e-07 272.88 
-0.47 -0.27 -0.194595 0.838298 0.0488328 0.0484533 -8.5693e-05 0.0487055 8.56121e-07 273.195 
-0.37 -0.31 -0.661415 0.949548 0.0488951 0.0484445 2.01838e-05 0.0486692 8.56227e-07 272.958 
-0.41 -0.29 -0.274044 1.1359 0.0487822 0.0483458 -3.94086e-05 0.0485731 8.54433e-07 272.991 
-0.45 -0.27 -0.29654 0.900286 0.0488308 0.0484153 -6.34529e-05 0.0486234 8.55865e-07 272.816 
-0.35 -0.31 -0.906271 1.04845 0.0488978 0.0484513 7.86301e-05 0.048694 8.55841e-07 273.22 
-0.39 -0.29 -0.370316 1.25606 0.0488216 0.0484917 1.46312e-05 0.0486453 8.54591e-07 273.346 
-0.43 -0.27 -0.462023 1.34437 0.0488081 0.0484107 -1.50134e-05 0.0485952 8.5467e-07 273.039 
-0.37 -0.29 -0.690752 1.02304 0.0488365 0.0484242 2.66263e-05 0.048666 8.5479e-07 273.399 
-0.41 -0.27 -0.473401 1.24177 0.0487881 0.0483671 -5.65292e-05 0.0485548 8.54577e-07 272.842 
-0.35 -0.29 -1.03967 1.38908 0.0488375 0.0483895 7.0057e-05 0.0486159 8.54879e-07 273.089 
-0.39 -0.27 -0.901349 1.3852 0.0487812 0.0484137 -3.98411e-05 0.0486346 8.55033e-07 273.145 
-0.33 -0.29 -0.987976 1.37908 0.0488901 0.0484388 5.002e-05 0.0486479 8.55474e-07 273.079 
-0.37 -0.27 -1.0645 1.42547 0.0488403 0.0483857 9.54547e-06 0.048644 8.55732e-07 272.974 
-0.35 -0.27 -1.17467 1.47135 0.0488681 0.0484026 4.00348e-05 0.0486278 8.56006e-07 272.796 
-0.33 -0.27 -1.41793 1.41609 0.0488353 0.0483841 7.58879e-05 0.048567 8.55138e-07 272.732 
-0.41 -0.37 -0.257023 0.710468 0.0488312 0.0484699 1.42437e-05 0.0486423 8.55524e-07 273.031 
-0.35 -0.37 -0.725311 0.930879 0.0487983 0.0484803 4.05565e-05 0.0486226 8.55677e-07 272.872 
-0.33 -0.37 -0.865347 0.461826 0.0487755 0.0484786 3.89722e-05 0.0486088 8.54816e-07 273.069 
-0.33 -0.35 -1.03747 0.852569 0.0488174 0.0484652 9.28614e-05 0.0486533 8.56308e-07 272.843 
-0.33 -0.31 -1.2666 1.20636 0.0488683 0.0483905 7.03685e-05 0.0486182 8.54896e-07 273.097 
-0.35 -0.25 -1.1973 1.53207 0.0488079 0.0483703 2.94302e-05 0.0485959 8.55176e-07 272.882 
-0.31 -0.49 -0.649541 0.0458967 0.0487284 0.0486094 7.01062e-05 0.0487084 8.55988e-07 273.254 
-0.29 -0.49 -0.67171 0.019922 0.0487011 0.0485276 5.10423e-05 0.0486447 8.55104e-07 273.178 
-0.27 -0.49 -0.838215 -0.031238 0.0486892 0.0484005 0.000129796 0.0485457 8.54772e-07 272.728 
-0.31 -0.47 -0.780849 -0.013046 0.0487118 0.0485997 8.6676e-05 0.0486662 8.55093e-07 273.303 
-0.29 -0.47 -0.665162 -0.000643351 0.0486873 0.0484509 0.000126132 0.0485993 8.54522e-07 273.11 
-0.27 -0.47 -0.571268 0.118155 0.0486782 0.0484087 7.96177e-05 0.0485288 8.53466e-07 273.051 
-0.31 -0.45 -0.605127 0.234761 0.0487911 0.0485252 6.05786e-05 0.0486508 8.55946e-07 272.944 
-0.29 -0.45 -0.737455 -0.0475052 0.0487858 0.0484703 0.000121515 0.0486253 8.5479e-07 273.17 
-0.27 -0.45 -1.02688 0.29812 0.0487702 0.0484469 0.00012863 0.0485867 8.54684e-07 272.987 
-0.31 -0.43 -0.967175 0.228052 0.0487545 0.0484558 7.29209e-05 0.0485959 8.55858e-07 272.664 
-0.29 -0.43 -1.18692 0.299034 0.0487723 0.0484416 0.000117117 0.0486173 8.55647e-07 272.851 
-0.27 -0.43 -1.15123 0.357519 0.0488037 0.0484704 0.00011621 0.0486281 8.55073e-07 273.095 
-0.31 -0.41 -1.21112 0.41488 0.0487673 0.0484219 8.71888e-05 0.0485928 8.54762e-07 272.996 
-0.25 -0.43 -1.24216 0.286083 0.048757 0.0484867 0.000132324 0.048641 8.53957e-07 273.525 
-0.29 -0.41 -1.30568 0.324406 0.048799 0.0484571 8.74432e-05 0.0486467 8.55583e-07 273.037 
-0.27 -0.41 -1.40161 0.344901 0.0487785 0.0484465 0.000141288 0.048611 8.55331e-07 272.917 
-0.31 -0.39 -1.07858 0.599554 0.0488362 0.0484208 7.42755e-05 0.0486107 8.54811e-07 273.081 
-0.25 -0.41 -1.40681 0.333291 0.0487896 0.0484922 0.000109831 0.0486442 8.5479e-07 273.276 
-0.29 -0.39 -1.27258 0.303649 0.0488211 0.0483756 9.88831e-05 0.0486087 8.5577e-07 272.764 
-0.27 -0.39 -1.35574 0.535253 0.0488253 0.0484469 0.00014465 0.0486699 8.55711e-07 273.126 
-0.31 -0.37 -1.12564 0.75531 0.0487332 0.04838 7.58719e-05 0.0485411 8.54292e-07 272.856 
-0.25 -0.39 -1.54136 0.491741 0.0488358 0.0485234 0.00014222 0.0486795 8.55501e-07 273.247 
-0.29 -0.37 -1.28638 0.594897 0.048767 0.0483674 0.000102888 0.0485461 8.54806e-07 272.72 
-0.27 -0.37 -1.50563 0.604771 0.0488468 0.0484348 6.55739e-05 0.0486468 8.55413e-07 273.092 
-0.31 -0.35 -1.28869 0.781778 0.0488645 0.0484063 4.90551e-05 0.0486421 8.55824e-07 272.935 
-0.29 -0.35 -1.18692 0.80251 0.0488489 0.0483462 4.75555e-05 0.048619 8.55497e-07 272.909 
-0.27 -0.35 -1.46599 0.840295 0.0488314 0.0484133 8.22538e-05 0.0486096 8.55879e-07 272.734 
-0.31 -0.33 -1.01761 0.937409 0.0488089 0.0484063 4.80684e-05 0.0486121 8.55511e-07 272.866 
-0.29 -0.33 -1.57825 1.04573 0.0487885 0.0483175 6.65324e-05 0.0485598 8.5469e-07 272.834 
-0.27 -0.33 -1.51066 0.764809 0.0487853 0.0483952 0.00013029 0.0485801 8.55497e-07 272.69 
-0.31 -0.31 -1.28969 1.12795 0.0488726 0.0483749 7.85453e-05 0.0486222 8.54788e-07 273.153 
-0.29 -0.31 -1.25215 1.09054 0.0488575 0.0483212 7.81008e-05 0.0486312 8.55221e-07 273.065 
-0.27 -0.31 -1.68836 1.18117 0.0488354 0.04837 8.61229e-05 0.0486015 8.54419e-07 273.155 
-0.31 -0.29 -1.28052 1.25783 0.0488406 0.0483255 7.65203e-05 0.0485819 8.54176e-07 273.122 
-0.25 -0.31 -1.82654 1.1602 0.0488058 0.0484118 0.000153582 0.0486248 8.54667e-07 273.207 
-0.29 -0.29 -1.63175 1.29999 0.0488135 0.0483217 8.55568e-05 0.0485639 8.53859e-07 273.123 
-0.27 -0.29 -1.63535 1.26132 0.0488433 0.0483455 0.000116267 0.0485799 8.53693e-07 273.265 
-0.31 -0.27 -1.52755 1.53961 0.0488078 0.0483276 9.70529e-05 0.0486061 8.54996e-07 272.996 
-0.25 -0.29 -1.8915 1.3129 0.0488422 0.0483909 0.00013528 0.0486206 8.54868e-07 273.119 
-0.29 -0.27 -1.56989 1.63298 0.0488081 0.0482849 0.000138488 0.048546 8.53614e-07 273.1 
-0.27 -0.27 -1.93261 1.50025 0.04875 0.0483157 9.84457e-05 0.0485385 8.52996e-07 273.256 
-0.25 -0.27 -2.11056 1.47784 0.0487591 0.0483421 0.000137695 0.0485664 8.54539e-07 272.92 
-0.33 -0.45 -0.764111 0.0982631 0.0487997 0.0485667 3.47102e-05 0.0486365 8.56175e-07 272.791 
-0.33 -0.41 -1.19584 0.231028 0.0487956 0.0484733 6.17517e-05 0.0485822 8.55294e-07 272.767 
-0.33 -0.39 -0.898448 0.364965 0.0488106 0.0484376 2.71722e-05 0.0485966 8.55035e-07 272.931 
-0.33 -0.33 -0.856084 1.04407 0.0488117 0.0484239 2.99087e-05 0.0486061 8.54654e-07 273.106 
-0.25 -0.49 -0.814218 0.00394138 0.0486688 0.0484956 0.000115425 0.0486201 8.55708e-07 272.848 
-0.25 -0.47 -0.764603 0.118792 0.0487139 0.0485194 7.26484e-05 0.0486141 8.55374e-07 272.921 
-0.25 -0.45 -1.12715 0.112039 0.0487385 0.0484962 7.07107e-05 0.048627 8.54522e-07 273.265 
-0.25 -0.37 -1.72953 0.637715 0.0488626 0.048518 0.000117533 0.0486861 8.55443e-07 273.303 
-0.25 -0.35 -1.64459 0.84355 0.0488393 0.0484497 0.000130949 0.0486276 8.54923e-07 273.141 
-0.25 -0.33 -1.65275 1.12472 0.0487441 0.0484418 7.61544e-05 0.0486374 8.55025e-07 273.163 
-0.49 -0.25 0.0785399 1.15558 0.0487678 0.0484425 -0.00012457 0.048645 8.55149e-07 273.166 
-0.47 -0.25 -0.232419 0.934897 0.0488236 0.0484081 -9.6604e-05 0.048611 8.55181e-07 272.965 
-0.45 -0.25 -0.492049 1.02387 0.048779 0.0483765 -5.15921e-05 0.0486197 8.55468e-07 272.922 
-0.49 -0.23 -0.0110937 1.10816 0.0487446 0.0484589 -0.000155739 0.0485962 8.55091e-07 272.911 
-0.47 -0.23 -0.114381 1.29601 0.048733 0.0483256 -0.000131499 0.0485243 8.5409e-07 272.826 
-0.45 -0.23 -0.473376 1.17956 0.0487843 0.0483665 -7.69508e-05 0.0486102 8.54659e-07 273.127 
-0.49 -0.21 -0.165594 1.27734 0.0487483 0.048455 -0.000168033 0.0486172 8.5607e-07 272.716 
-0.43 -0.23 -0.529338 1.26719 0.0488228 0.0484347 -8.72312e-05 0.0486344 8.55129e-07 273.113 
-0.47 -0.21 -0.309775 1.39979 0.0487677 0.0482864 -0.000143276 0.0485794 8.54724e-07 272.934 
-0.41 -0.23 -0.711436 1.71976 0.048835 0.0483639 -3.19153e-05 0.0486009 8.54793e-07 273.032 
-0.45 -0.21 -0.243369 1.29393 0.0488102 0.0483263 -0.00010283 0.0486084 8.54973e-07 273.016 
-0.49 -0.19 -0.00832529 1.38908 0.0488133 0.0484117 -0.000155333 0.0486095 8.5592e-07 272.721 
-0.39 -0.23 -0.759499 1.82557 0.0488176 0.0483345 -9.751e-06 0.048603 8.54366e-07 273.18 
-0.43 -0.21 -0.658999 1.52135 0.0488451 0.0484331 -6.29257e-05 0.0486499 8.55601e-07 273.049 
-0.47 -0.19 -0.0535553 1.41756 0.0488049 0.0482905 -0.000122795 0.0485887 8.5529e-07 272.805 
-0.41 -0.21 -0.835213 1.81894 0.0488285 0.0483033 -3.96549e-05 0.0486036 8.54878e-07 273.02 
-0.45 -0.19 -0.401846 1.68643 0.0488075 0.0483301 -0.000110935 0.0485832 8.5424e-07 273.109 
-0.49 -0.17 0.0591542 1.30047 0.0487883 0.0484115 -0.000158911 0.0485973 8.5533e-07 272.841 
-0.39 -0.21 -0.885932 1.99552 0.0488572 0.0483358 -3.19338e-05 0.0486211 8.5574e-07 272.843 
-0.43 -0.19 -0.721306 1.88594 0.048806 0.0483753 -0.000118289 0.0486209 8.55295e-07 272.984 
-0.47 -0.17 -0.179161 1.88015 0.0487902 0.0482313 -0.000144153 0.0485268 8.53886e-07 272.906 
-0.41 -0.19 -0.870334 1.83322 0.0488451 0.048302 -5.27313e-05 0.0485697 8.54647e-07 272.903 
-0.45 -0.17 -0.387807 1.8785 0.0488165 0.0483305 -0.000155809 0.048602 8.54465e-07 273.143 
-0.49 -0.15 0.00113956 1.34832 0.0487045 0.0483185 -0.000154047 0.0485228 8.53847e-07 272.895 
-0.39 -0.19 -0.98626 2.06894 0.0488131 0.0482823 -4.13622e-05 0.0485524 8.54229e-07 272.94 
-0.43 -0.17 -0.560505 2.0539 0.048803 0.0483184 -8.73873e-05 0.048625 8.55072e-07 273.078 
-0.47 -0.15 0.14538 1.8287 0.0487405 0.0482566 -0.000144794 0.0484652 8.53648e-07 272.635 
-0.41 -0.17 -0.660755 1.95881 0.0487563 0.0482802 -5.63512e-05 0.0485416 8.53191e-07 273.211 
-0.45 -0.15 -0.18664 2.22587 0.0487597 0.0483336 -0.00014645 0.0485565 8.53829e-07 273.09 
-0.39 -0.17 -0.801871 2.23906 0.0487814 0.0482506 -4.77632e-05 0.0485191 8.53365e-07 273.029 
-0.43 -0.15 -0.345956 2.10066 0.0487314 0.0481927 -6.09931e-05 0.0484923 8.5375e-07 272.754 
-0.41 -0.15 -0.574469 2.24879 0.0487924 0.0482997 -5.10383e-05 0.0485674 8.54123e-07 273.058 
-0.39 -0.15 -0.885657 2.65961 0.0487761 0.0482771 -6.05713e-05 0.0485219 8.54125e-07 272.801 
-0.43 -0.25 -0.334385 1.34275 0.0488001 0.0484655 -2.27191e-05 0.0486331 8.55904e-07 272.858 
-0.41 -0.25 -0.422161 1.4936 0.0488367 0.0483345 -5.33371e-05 0.0486133 8.55439e-07 272.896 
-0.39 -0.25 -0.768587 1.74434 0.0488564 0.0484238 -4.46061e-05 0.0486496 8.55962e-07 272.932 
-0.33 -0.25 -1.24745 1.65035 0.0487954 0.0483228 8.84566e-05 0.0485792 8.54675e-07 272.948 
-0.37 -0.25 -1.06047 1.54164 0.0487885 0.0483268 -2.41015e-06 0.048572 8.54925e-07 272.828 
-0.37 -0.23 -0.888134 1.87299 0.0488585 0.0483782 6.28352e-06 0.0486622 8.56033e-07 272.981 
-0.35 -0.23 -1.08858 1.80777 0.0488102 0.0482885 1.76971e-05 0.0485898 8.55213e-07 272.836 
-0.37 -0.21 -1.00494 1.95721 0.0488194 0.0483121 -2.74134e-08 0.0486058 8.54871e-07 273.035 
-0.35 -0.21 -1.04378 1.93911 0.0488577 0.0482937 1.61981e-05 0.0485888 8.54766e-07 272.973 
-0.33 -0.21 -1.19543 2.12808 0.04887 0.048282 3.98934e-05 0.0486008 8.55357e-07 272.851 
-0.37 -0.19 -1.07331 2.02828 0.0488614 0.0483193 2.58367e-06 0.0485975 8.55545e-07 272.773 
-0.35 -0.19 -1.16124 2.04788 0.0488549 0.0482676 8.89147e-06 0.04855 8.55071e-07 272.658 
-0.33 -0.19 -1.26615 2.315 0.0488307 0.0482101 6.48817e-05 0.048552 8.54793e-07 272.758 
-0.37 -0.17 -0.972658 2.22328 0.0488179 0.0482675 -4.97769e-05 0.0485556 8.53655e-07 273.141 
-0.35 -0.17 -1.41379 2.41228 0.0488051 0.0482168 3.96432e-05 0.048532 8.5409e-07 272.869 
-0.33 -0.17 -1.65133 2.42281 0.0488236 0.0482034 5.92881e-05 0.0485289 8.54125e-07 272.841 
-0.37 -0.15 -1.28868 2.41883 0.0487554 0.048203 -9.84713e-06 0.0484443 8.52156e-07 272.994 
-0.35 -0.15 -1.35161 2.54998 0.0487379 0.048169 7.39288e-06 0.0484644 8.53595e-07 272.648 
-0.33 -0.15 -1.58436 2.52725 0.0487656 0.0481945 1.46681e-05 0.0484979 8.54376e-07 272.586 
-0.37 -0.13 -1.20366 2.60391 0.0487657 0.0481687 1.07485e-05 0.0484726 8.53243e-07 272.806 
-0.35 -0.13 -1.49058 2.90935 0.048748 0.0481643 -4.25978e-06 0.0484572 8.53688e-07 272.577 
-0.33 -0.13 -1.67764 2.63984 0.0487493 0.0481922 4.84682e-05 0.0484506 8.53603e-07 272.567 
-0.37 -0.11 -1.06408 3.08351 0.0487941 0.0481555 -5.69483e-07 0.0484847 8.52653e-07 273.063 
-0.35 -0.11 -1.53359 2.95709 0.0487698 0.0482052 1.96649e-05 0.0484737 8.53488e-07 272.734 
-0.33 -0.11 -1.67441 2.96169 0.0487669 0.0481172 -5.30836e-06 0.0484212 8.53193e-07 272.533 
-0.35 -0.09 -1.3418 3.36617 0.0487681 0.0482192 1.84516e-05 0.0485056 8.52831e-07 273.124 
-0.49 -0.13 -0.102974 1.43283 0.0486974 0.0482639 -0.00018899 0.0484884 8.5385e-07 272.701 
-0.47 -0.13 -0.171782 1.89896 0.0487155 0.0482413 -0.000176242 0.048463 8.53462e-07 272.682 
-0.45 -0.13 -0.156768 2.42598 0.0487314 0.048294 -0.00014075 0.0484921 8.53638e-07 272.789 
-0.49 -0.11 0.038488 1.4698 0.0487324 0.048261 -0.000216001 0.048482 8.52599e-07 273.065 
-0.43 -0.13 -0.44568 2.42935 0.0487448 0.0481434 -0.000119962 0.0484669 8.52602e-07 272.979 
-0.47 -0.11 -0.281565 2.155 0.0487102 0.0482423 -0.000181766 0.0484999 8.53124e-07 272.998 
-0.41 -0.13 -0.899124 2.41419 0.0487988 0.0482744 -9.23584e-05 0.0485481 8.53518e-07 273.143 
-0.45 -0.11 -0.450789 2.35781 0.0487468 0.0482239 -0.000168173 0.0485004 8.52697e-07 273.137 
-0.49 -0.09 -0.334926 1.79632 0.0485754 0.0482226 -0.000206854 0.0484108 8.52277e-07 272.767 
-0.39 -0.13 -1.0532 2.88819 0.048803 0.0482623 -2.17069e-05 0.0485649 8.53946e-07 273.101 
-0.43 -0.11 -0.465833 2.8086 0.0487636 0.0481496 -0.000134903 0.0484761 8.52885e-07 272.94 
-0.47 -0.09 -0.510982 2.4081 0.0486393 0.0482673 -0.000212506 0.0484814 8.52962e-07 272.945 
-0.41 -0.11 -0.502267 2.76939 0.0487444 0.0482288 -8.99785e-05 0.0484936 8.53176e-07 272.946 
-0.45 -0.09 -0.619193 2.47242 0.0486319 0.0481631 -0.000176065 0.0483737 8.51945e-07 272.664 
-0.39 -0.11 -0.946503 2.92698 0.0487289 0.0481732 -4.45041e-05 0.0485148 8.52692e-07 273.22 
-0.43 -0.09 -0.769122 2.77919 0.0486185 0.0480891 -0.000146511 0.0484038 8.52098e-07 272.785 
-0.41 -0.09 -0.88463 3.00954 0.0486886 0.0481582 -0.000125751 0.0484516 8.52491e-07 272.928 
-0.39 -0.09 -0.818017 3.08652 0.0487395 0.0481752 -4.17427e-05 0.048476 8.52691e-07 273.002 
-0.37 -0.09 -1.18848 3.32338 0.0486832 0.0480857 -2.34265e-05 0.0484013 8.51228e-07 273.049 
-0.35 -0.03 -1.85567 3.88132 0.0486258 0.0481222 -3.52897e-05 0.0483405 8.5093e-07 272.802 
-0.37 -0.07 -1.30608 3.62103 0.0487111 0.0480772 -5.43032e-05 0.0484275 8.52044e-07 272.936 
-0.41 -0.05 -0.952854 3.34158 0.048657 0.0480601 -0.000122965 0.0483695 8.51383e-07 272.821 
-0.45 -0.03 -0.597217 3.24645 0.0485502 0.0480092 -0.000243173 0.0483168 8.50669e-07 272.752 
-0.35 -0.07 -1.54419 3.55898 0.048726 0.0481579 -3.07472e-05 0.0484589 8.52462e-07 272.979 
-0.39 -0.05 -1.23323 3.47665 0.0486686 0.0481039 -9.84262e-05 0.0483448 8.50923e-07 272.829 
-0.43 -0.03 -0.673853 3.6634 0.0485717 0.0480803 -0.000200664 0.0483314 8.50562e-07 272.869 
-0.33 -0.07 -1.79243 3.50884 0.0487906 0.0481289 1.44242e-05 0.0484561 8.52103e-07 273.078 
-0.37 -0.05 -1.47969 3.80357 0.048652 0.0480419 -0.000102769 0.0483256 8.49968e-07 273.027 
-0.41 -0.03 -0.818524 3.61013 0.0486427 0.0480488 -0.000128433 0.0483188 8.50752e-07 272.737 
-0.35 -0.05 -1.58156 3.62296 0.0485854 0.0481163 -6.3937e-05 0.0483417 8.50998e-07 272.787 
-0.39 -0.03 -1.29496 3.89933 0.048634 0.0480794 -0.000106242 0.0483423 8.49747e-07 273.192 
-0.33 -0.05 -1.87598 3.86394 0.0485839 0.0480511 -8.88998e-06 0.0483251 8.51596e-07 272.502 
-0.37 -0.03 -1.68189 3.92859 0.0486428 0.0479741 -3.79314e-05 0.0482557 8.4977e-07 272.695 
-0.33 -0.03 -1.988 4.09587 0.0486027 0.0479851 1.04164e-05 0.0483232 8.50025e-07 272.995 
-0.49 -0.07 0.0543313 2.08384 0.0485849 0.0482188 -0.000229294 0.0484018 8.51413e-07 272.993 
-0.47 -0.07 -0.132373 2.40551 0.0485917 0.0482409 -0.000204107 0.0484633 8.52469e-07 273.001 
-0.45 -0.07 -0.292537 2.77015 0.0486392 0.0481228 -0.000179329 0.048371 8.51185e-07 272.892 
-0.49 -0.05 -0.0562091 2.16763 0.0484723 0.0481796 -0.00030593 0.0483101 8.49958e-07 272.942 
-0.43 -0.07 -0.731784 3.18939 0.0486104 0.0481388 -0.00014743 0.0484128 8.51482e-07 273.033 
-0.47 -0.05 -0.253005 2.64504 0.0485696 0.0482311 -0.000281642 0.0483998 8.51803e-07 272.857 
-0.41 -0.07 -0.972955 3.12265 0.0485741 0.0481051 -0.000126725 0.048328 8.50589e-07 272.841 
-0.45 -0.05 -0.476675 2.94221 0.0485784 0.0480272 -0.000194054 0.0483187 8.49572e-07 273.115 
-0.49 -0.03 -0.0487995 2.29129 0.0485228 0.0481277 -0.000335124 0.048322 8.5028e-07 272.906 
-0.39 -0.07 -1.18177 3.15854 0.0486078 0.0480822 -0.000110069 0.0483607 8.51572e-07 272.71 
-0.43 -0.05 -0.574826 3.47603 0.0486752 0.0481461 -0.00014867 0.0484541 8.52102e-07 273.067 
-0.47 -0.03 -0.220657 2.82823 0.0485435 0.0481488 -0.000269538 0.0483377 8.507e-07 272.86 
-0.27 -0.07 -2.60127 3.61432 0.0486676 0.0481449 0.000109633 0.0484091 8.52586e-07 272.658 
-0.31 -0.05 -2.14204 3.93636 0.0486148 0.0480276 8.02285e-05 0.0483419 8.51136e-07 272.744 
-0.27 -0.09 -2.48565 3.4271 0.0487415 0.0481543 8.90013e-05 0.0484421 8.53539e-07 272.539 
-0.31 -0.07 -2.15737 3.50308 0.0487633 0.0480831 5.28211e-05 0.0484346 8.52537e-07 272.818 
-0.29 -0.07 -2.52322 3.7338 0.0486946 0.0481242 0.000131893 0.0484109 8.5186e-07 272.901 
-0.25 -0.07 -2.54431 2.97549 0.0486898 0.048204 9.97232e-05 0.0484281 8.52078e-07 272.928 
-0.29 -0.05 -2.26734 3.73999 0.0486731 0.0481156 0.000115636 0.0483797 8.51517e-07 272.835 
-0.27 -0.05 -2.34467 3.60814 0.0486607 0.0481427 8.34992e-05 0.0483814 8.5128e-07 272.92 
-0.31 -0.03 -2.33552 4.20462 0.0485922 0.0480066 9.43518e-06 0.0482644 8.495e-07 272.831 
-0.25 -0.05 -2.48822 3.20561 0.0486976 0.0481995 0.000102084 0.0484497 8.51913e-07 273.102 
-0.29 -0.03 -2.36065 3.8175 0.0485865 0.048048 5.19725e-05 0.0483166 8.49886e-07 273.002 
-0.27 -0.03 -2.48148 3.64526 0.048648 0.0481721 9.08135e-05 0.0484344 8.52982e-07 272.675 
-0.25 -0.03 -2.31313 3.20575 0.0486399 0.0481793 9.40115e-05 0.0484185 8.52159e-07 272.848 
-0.27 -0.01 -2.04078 3.78661 0.0485297 0.048134 7.56958e-05 0.0483851 8.51675e-07 272.815 
-0.31 -0.25 -1.53453 1.77493 0.0488601 0.0483014 0.000113984 0.0485894 8.54656e-07 273.011 
-0.29 -0.25 -1.87916 1.76534 0.0488861 0.0482981 0.000127172 0.0485773 8.54156e-07 273.103 
-0.27 -0.25 -1.82054 1.63633 0.0488955 0.0483203 0.000113933 0.0486212 8.54732e-07 273.166 
-0.29 -0.11 -2.24088 2.90286 0.0488327 0.0481739 5.21514e-05 0.0485146 8.54806e-07 272.543 
-0.33 -0.09 -1.69317 3.14506 0.0487674 0.048133 2.08827e-05 0.0484309 8.52905e-07 272.679 
-0.27 -0.11 -2.39952 3.23114 0.0487942 0.0481673 0.000104632 0.0484771 8.53692e-07 272.688 
-0.31 -0.09 -1.89453 3.39604 0.0487101 0.0481232 3.59163e-05 0.0484164 8.5159e-07 273.019 
-0.29 -0.09 -2.11223 3.34011 0.0487102 0.0481495 6.06115e-05 0.0484235 8.52698e-07 272.704 
-0.33 -0.23 -1.41898 1.65698 0.0488438 0.0483106 8.61578e-05 0.0486297 8.55616e-07 272.931 
-0.31 -0.23 -1.49974 2.01588 0.0488378 0.0482659 4.90906e-05 0.0485811 8.55042e-07 272.841 
-0.29 -0.23 -1.44403 1.85546 0.0488361 0.0483414 9.37436e-05 0.0486209 8.55237e-07 273.002 
-0.27 -0.23 -1.80069 1.67096 0.0488601 0.0483007 9.29827e-05 0.0485887 8.547e-07 272.994 
-0.31 -0.21 -1.56123 2.11691 0.0488525 0.0482376 6.93149e-05 0.0485885 8.55419e-07 272.763 
-0.29 -0.21 -1.81097 1.91899 0.0488995 0.0483424 6.45695e-05 0.0486502 8.56333e-07 272.818 
-0.27 -0.21 -1.74718 1.93557 0.0488873 0.0482971 0.000138203 0.0486094 8.55324e-07 272.91 
-0.31 -0.19 -1.40717 2.27831 0.0488355 0.0482853 4.50429e-05 0.048567 8.54669e-07 272.881 
-0.25 -0.21 -2.05399 1.68956 0.0488661 0.0482526 0.000122701 0.0485893 8.54996e-07 272.902 
-0.29 -0.19 -1.63766 2.23516 0.0488055 0.048273 0.000103286 0.0485332 8.55023e-07 272.578 
-0.27 -0.19 -1.90347 2.031 0.04879 0.0482478 0.000150342 0.0485173 8.53311e-07 273.036 
-0.31 -0.17 -1.57772 2.19063 0.0487907 0.0482643 4.5579e-05 0.0485352 8.54426e-07 272.78 
-0.25 -0.19 -2.03715 2.05296 0.0488142 0.0482627 0.000125732 0.0485437 8.53957e-07 272.978 
-0.29 -0.17 -1.68916 2.46098 0.0488204 0.0482502 9.6656e-05 0.0485513 8.5396e-07 273.019 
-0.27 -0.17 -2.07519 2.49846 0.0487907 0.0482294 0.000122597 0.0485501 8.54445e-07 272.858 
-0.31 -0.15 -1.78418 2.51667 0.04877 0.0482136 6.66653e-05 0.0485042 8.53922e-07 272.767 
-0.25 -0.17 -2.56521 2.22459 0.0488314 0.0482645 0.00012544 0.0485291 8.5332e-07 273.1 
-0.29 -0.15 -2.00656 2.60552 0.0487592 0.0481683 0.000126422 0.0484677 8.53503e-07 272.695 
-0.27 -0.15 -2.16322 2.81368 0.04879 0.0482925 0.00010328 0.048543 8.54376e-07 272.84 
-0.31 -0.13 -1.95051 2.8146 0.0487463 0.0481853 6.46965e-05 0.048464 8.52917e-07 272.862 
-0.25 -0.15 -2.37033 2.50054 0.0488164 0.0482796 0.000102786 0.0485254 8.5422e-07 272.791 
-0.29 -0.13 -2.18177 2.80914 0.0488001 0.0481529 5.32633e-05 0.0484896 8.54497e-07 272.501 
-0.27 -0.13 -2.563 2.96296 0.048808 0.0482444 6.88284e-05 0.0485365 8.54386e-07 272.8 
-0.31 -0.11 -2.0004 3.26731 0.0488606 0.0481936 4.53932e-05 0.0485246 8.53249e-07 273.097 
-0.25 -0.13 -2.63783 2.72748 0.0488255 0.0482534 0.000134472 0.0485181 8.53927e-07 272.843 
-0.25 -0.25 -1.79852 1.46508 0.0489035 0.0483534 0.0001315 0.0486496 8.5565e-07 273.032 
-0.25 -0.23 -1.97513 1.67106 0.048842 0.0482849 0.000113677 0.0485735 8.54708e-07 272.905 
-0.25 -0.11 -2.49341 2.85121 0.0488027 0.0482424 7.72111e-05 0.0484864 8.52664e-07 273.069 
-0.25 -0.09 -2.72268 2.95776 0.0487212 0.0482502 0.000147453 0.048472 8.52432e-07 273.062 
-0.25 -0.01 -2.42525 3.38687 0.0485246 0.0481405 0.000115764 0.0483322 8.51355e-07 272.619 
-0.23 -0.49 -0.921085 0.0860022 0.0486865 0.0485617 0.000132089 0.0486081 8.54796e-07 273.072 
-0.21 -0.49 -0.958525 -0.0519371 0.0487097 0.0485035 0.000137823 0.0486021 8.5347e-07 273.462 
-0.19 -0.49 -1.04474 0.0216877 0.0487386 0.0485711 0.000212324 0.0486414 8.54787e-07 273.261 
-0.23 -0.47 -0.805506 0.0752291 0.0487304 0.0485251 9.40055e-05 0.0486466 8.55963e-07 272.915 
-0.17 -0.49 -1.11357 0.0954995 0.0487322 0.0486282 0.000128984 0.0486836 8.55792e-07 273.177 
-0.21 -0.47 -1.10414 0.165826 0.0487453 0.0484963 0.000134285 0.0486187 8.54753e-07 273.145 
-0.15 -0.49 -1.03131 -0.0733058 0.0487054 0.0486076 0.000199558 0.0486428 8.55994e-07 272.884 