ITEM: TIMESTEP
850000
ITEM: NUMBER OF CELLS
2500
ITEM: BOX BOUNDS ss ss pp
-0.5 0.5
-0.5 0.5
-0.5 0.5
ITEM: CELLS xc yc f_U[*] f_V[*] f_Tau[1] f_Tau[2] f_Tau[3] f_Press[*] f_Mrho[*] f_Ttra[*] 
-0.49 -0.49 -0.233897 0.182778 0.0487108 0.0485271 2.15708e-05 0.048669 8.55901e-07 273.061 
-0.47 -0.49 -0.418981 -0.0309415 0.0486652 0.0485623 -2.43391e-05 0.0485948 8.54975e-07 272.94 
-0.45 -0.49 -0.162756 -0.0936454 0.0485825 0.0484976 -2.40779e-05 0.0485507 8.54753e-07 272.763 
-0.49 -0.47 0.231198 0.159642 0.048685 0.0484974 -1.26095e-05 0.0485756 8.53054e-07 273.446 
-0.43 -0.49 -0.107643 -0.204619 0.0485369 0.0485121 6.66198e-06 0.0485598 8.54618e-07 272.857 
-0.47 -0.47 0.051817 0.144587 0.0487698 0.048592 2.72441e-06 0.0487 8.55192e-07 273.461 
-0.41 -0.49 0.207224 0.0554588 0.048643 0.0484506 2.56686e-05 0.0485021 8.53871e-07 272.771 
-0.45 -0.47 -0.203821 0.0250309 0.0487261 0.0484574 6.42305e-05 0.0485612 8.54304e-07 272.965 
-0.49 -0.45 -0.179487 0.158278 0.0486687 0.0485424 -1.30973e-05 0.048625 8.54718e-07 273.191 
-0.39 -0.49 0.186799 -0.104024 0.0487032 0.0484313 -6.18414e-06 0.0485541 8.54639e-07 272.818 
-0.43 -0.47 -0.179973 -0.328648 0.0487299 0.0485643 2.48082e-05 0.0486922 8.56593e-07 272.97 
-0.47 -0.45 -0.0886673 0.26078 0.0486418 0.0484812 3.22263e-05 0.0485495 8.53179e-07 273.26 
-0.37 -0.49 0.13933 0.116388 0.048729 0.048527 8.1524e-05 0.0486173 8.56478e-07 272.587 
-0.41 -0.47 -0.381581 0.0114979 0.0485955 0.048431 -3.46614e-05 0.0485217 8.55651e-07 272.314 
-0.45 -0.45 -0.269992 0.118217 0.0487778 0.0485595 -1.46233e-05 0.0486728 8.56006e-07 273.049 
-0.49 -0.43 -0.12729 0.464953 0.0486644 0.0485325 -1.00216e-05 0.0486253 8.56787e-07 272.534 
-0.35 -0.49 0.0510415 0.127813 0.0487459 0.0486696 0.00014275 0.0486637 8.57001e-07 272.681 
-0.39 -0.47 -0.379587 0.0353455 0.0485692 0.0483503 2.67216e-05 0.0484697 8.53369e-07 272.749 
-0.43 -0.45 -0.391886 0.0952785 0.0488279 0.0485527 2.78103e-05 0.048645 8.53807e-07 273.595 
-0.47 -0.43 -0.332076 0.285542 0.0487409 0.0484982 -5.24635e-05 0.0486375 8.56769e-07 272.608 
-0.37 -0.47 -0.421604 0.102738 0.0486529 0.0484735 4.16431e-06 0.0485481 8.54113e-07 272.952 
-0.41 -0.45 -0.548134 0.0248859 0.0487745 0.0485236 7.83837e-05 0.0486484 8.54765e-07 273.308 
-0.45 -0.43 -0.669973 0.597236 0.0486965 0.0486901 -6.76864e-05 0.0486587 8.5607e-07 272.949 
-0.49 -0.41 -0.0256879 0.611422 0.0489205 0.0484941 -3.6411e-05 0.0486769 8.57326e-07 272.651 
-0.35 -0.47 -0.59461 0.320507 0.0487676 0.0486279 0.000103273 0.0486888 8.5662e-07 272.943 
-0.39 -0.45 -0.688875 0.0248957 0.0487238 0.0483077 -4.22819e-05 0.0485312 8.53417e-07 273.08 
-0.43 -0.43 -0.598835 -0.138422 0.0486804 0.0484333 -1.00625e-05 0.0486079 8.55004e-07 273.004 
-0.47 -0.41 -0.225198 0.4178 0.0488658 0.0485522 -3.94601e-05 0.0487072 8.57236e-07 272.849 
-0.37 -0.45 -0.94132 0.178818 0.0486855 0.048505 -7.95697e-06 0.0485428 8.55175e-07 272.584 
-0.41 -0.43 -0.729562 0.384211 0.0488036 0.0485131 1.14586e-05 0.0486498 8.55494e-07 273.083 
-0.45 -0.41 0.0446417 0.359371 0.0489068 0.0486122 3.41163e-05 0.0487708 8.57681e-07 273.064 
-0.49 -0.39 0.173604 0.385948 0.0488181 0.0484652 -7.33893e-05 0.0486516 8.56733e-07 272.698 
-0.35 -0.45 -0.793399 0.4704 0.0487042 0.0485741 3.38626e-05 0.0485821 8.55494e-07 272.703 
-0.39 -0.43 -0.900255 0.134366 0.0488292 0.0483856 1.61581e-05 0.0486013 8.54946e-07 272.986 
-0.43 -0.41 -0.218164 0.353221 0.0488082 0.0485413 -3.07879e-05 0.0486728 8.54951e-07 273.385 
-0.47 -0.39 0.300559 0.486138 0.0489048 0.0485472 -3.93639e-05 0.0486993 8.56993e-07 272.882 
-0.37 -0.43 -1.07914 0.26774 0.0488431 0.048459 1.10778e-06 0.048621 8.56342e-07 272.651 
-0.41 -0.41 -0.723439 0.481857 0.0487412 0.0484304 -4.34074e-06 0.048595 8.54669e-07 273.039 
-0.45 -0.39 0.224453 0.628216 0.0488859 0.0484917 4.85301e-05 0.0487113 8.54944e-07 273.604 
-0.35 -0.43 -1.4099 0.380929 0.0489277 0.0485972 -1.14067e-05 0.0487217 8.56801e-07 273.069 
-0.39 -0.41 -0.815115 0.364763 0.0487788 0.0484287 -3.00294e-05 0.0485982 8.5508e-07 272.925 
-0.43 -0.39 -0.384826 1.02854 0.0488628 0.0486108 2.42074e-05 0.0487503 8.55543e-07 273.631 
-0.37 -0.41 -0.852293 0.584329 0.0487989 0.048512 -4.39205e-05 0.0486583 8.55724e-07 273.057 
-0.41 -0.39 -0.561351 0.655604 0.0487987 0.0483913 -1.83716e-05 0.0485992 8.55382e-07 272.835 
-0.35 -0.41 -1.09762 0.61607 0.0486915 0.0484422 -2.38159e-05 0.0485311 8.54603e-07 272.701 
-0.39 -0.39 -0.674283 0.416832 0.0487604 0.0484989 6.6094e-06 0.048633 8.56581e-07 272.642 
-0.37 -0.39 -0.662413 0.607328 0.0487826 0.0484643 1.26059e-05 0.0486235 8.56012e-07 272.77 
-0.35 -0.39 -0.790805 0.842893 0.0487982 0.0484641 0.000100272 0.0485737 8.54844e-07 272.863 
-0.37 -0.37 -0.893087 0.691884 0.0488512 0.0484064 -1.05573e-05 0.0485841 8.53847e-07 273.24 
-0.33 -0.49 -0.326133 0.0742622 0.048674 0.048506 9.15235e-05 0.0485949 8.55031e-07 272.922 
-0.33 -0.47 -0.56074 0.645444 0.0487649 0.0485526 7.032e-05 0.0486729 8.54251e-07 273.61 
-0.33 -0.43 -1.10193 0.398967 0.0488066 0.0485233 5.67195e-05 0.0486714 8.56829e-07 272.779 
-0.49 -0.37 -0.128379 0.334196 0.0487766 0.0485818 -4.85358e-05 0.0486478 8.54904e-07 273.26 
-0.47 -0.37 -0.096967 0.67559 0.0487625 0.0483997 -3.36305e-05 0.0485778 8.54973e-07 272.845 
-0.45 -0.37 -0.571288 0.731567 0.0487771 0.0484964 -1.9984e-05 0.0485721 8.53123e-07 273.404 
-0.49 -0.35 -0.0168214 0.541335 0.0487114 0.0485286 -3.39067e-05 0.0485769 8.55325e-07 272.727 
-0.43 -0.37 -0.409785 1.14836 0.0488361 0.0485818 3.53812e-05 0.048678 8.54467e-07 273.569 
-0.47 -0.35 -0.0170111 0.68699 0.0487603 0.0484173 -4.86993e-05 0.0485551 8.54393e-07 272.903 
-0.45 -0.35 0.0155586 0.94937 0.0487871 0.0485009 -2.84258e-05 0.0486492 8.54431e-07 273.419 
-0.49 -0.33 0.0489713 0.666365 0.0488998 0.0485138 -4.2646e-06 0.0487224 8.56602e-07 273.137 
-0.39 -0.37 -0.346019 0.731826 0.0488622 0.0485378 3.6997e-05 0.048619 8.55736e-07 272.833 
-0.43 -0.35 -0.134119 0.920239 0.0487939 0.0485435 -4.77154e-05 0.0486896 8.56275e-07 273.057 
-0.47 -0.33 -0.0843229 0.627407 0.0489023 0.048517 -3.44076e-05 0.0487151 8.55876e-07 273.327 
-0.41 -0.35 -0.162979 0.734781 0.0488149 0.0484149 2.91613e-05 0.0486145 8.54813e-07 273.102 
-0.45 -0.33 -0.146989 0.967852 0.0488592 0.0484368 -7.22674e-05 0.0486337 8.55422e-07 273.016 
-0.49 -0.31 -0.109254 0.769574 0.0487614 0.0484779 -5.30743e-05 0.0485913 8.53855e-07 273.278 
-0.39 -0.35 -0.622867 1.03225 0.0488768 0.0485202 2.36033e-05 0.0486516 8.55638e-07 273.047 
-0.43 -0.33 -0.210075 1.09254 0.0488845 0.0485138 9.97048e-06 0.0487035 8.5624e-07 273.146 
-0.47 -0.31 -0.126638 0.830053 0.0487874 0.0485114 -3.39134e-05 0.0486632 8.55159e-07 273.265 
-0.37 -0.35 -0.959866 1.14155 0.0487732 0.0484046 0.000128664 0.048581 8.55887e-07 272.571 
-0.41 -0.33 -0.315726 0.977273 0.0488951 0.0484403 -6.97845e-05 0.048659 8.55758e-07 273.05 
-0.45 -0.31 -0.264101 1.15499 0.0488404 0.0485013 -8.25649e-05 0.048654 8.55146e-07 273.218 
-0.49 -0.29 -0.0857771 0.837831 0.04865 0.0484393 -7.28633e-05 0.0485616 8.53411e-07 273.253 
-0.35 -0.35 -1.26811 0.922167 0.0488255 0.0484249 5.93103e-06 0.0486096 8.53634e-07 273.452 
-0.39 -0.33 -0.748812 1.38171 0.0488283 0.0484118 1.17987e-05 0.0485724 8.55442e-07 272.665 
-0.43 -0.31 -0.479271 1.115 0.0487652 0.0484294 -0.000113648 0.0486142 8.54274e-07 273.273 
-0.47 -0.29 -0.264704 0.944217 0.0487405 0.0485507 -0.000100444 0.0486431 8.5537e-07 273.085 
-0.37 -0.33 -0.556665 1.35062 0.0489479 0.0485259 4.21023e-05 0.0486637 8.56547e-07 272.825 
-0.41 -0.31 -0.777346 1.18507 0.0488324 0.0483402 1.35842e-05 0.0486196 8.54886e-07 273.107 
-0.45 -0.29 -0.113861 1.15196 0.0487866 0.0484583 2.04669e-05 0.0486203 8.5464e-07 273.19 
-0.49 -0.27 -0.00792089 0.994478 0.0488589 0.048481 -0.000100978 0.0486717 8.55672e-07 273.149 
-0.35 -0.33 -0.6389 1.10702 0.048906 0.0483731 1.0838e-05 0.0486155 8.54747e-07 273.128 
-0.39 -0.31 -0.678958 1.46112 0.0488776 0.048408 5.38638e-05 0.0486241 8.53705e-07 273.51 
-0.43 -0.29 -0.267303 1.50297 0.0487493 0.048478 -4.6613e-05 0.048628 8.55135e-07 273.075 
-0.47 -0.27 -0.0909054 0.948114 0.0488742 0.0484563 -0.000103237 0.0486944 8.55562e-07 273.311 
-0.37 -0.31 -0.619294 0.994919 0.0488432 0.048464 3.32499e-05 0.0486252 8.5635e-07 272.672 
-0.41 -0.29 -0.240045 1.34407 0.0487218 0.0482656 -8.37383e-05 0.0485382 8.55298e-07 272.518 
-0.45 -0.27 -0.228976 1.30068 0.0488962 0.0484045 -4.60344e-05 0.0486373 8.55907e-07 272.881 
-0.35 -0.31 -0.843689 1.33584 0.0488775 0.0484345 1.46143e-05 0.0486545 8.56769e-07 272.703 
-0.39 -0.29 -0.387265 1.56981 0.0488316 0.0484006 -7.39159e-06 0.0485888 8.53206e-07 273.472 
-0.43 -0.27 -0.429297 1.47568 0.0488778 0.0485468 1.18394e-05 0.0486703 8.55839e-07 273.088 
-0.37 -0.29 -0.755258 0.9755 0.048834 0.04848 -9.96819e-06 0.0486779 8.54723e-07 273.487 
-0.41 -0.27 -0.367744 1.41624 0.0487884 0.048347 -7.85731e-05 0.0485366 8.54044e-07 272.91 
-0.35 -0.29 -0.765032 1.5243 0.0488308 0.0484253 6.798e-05 0.0485911 8.54686e-07 273.011 
-0.39 -0.27 -0.553862 1.49753 0.0486909 0.0483142 -0.000107432 0.0485253 8.53646e-07 272.974 
-0.33 -0.29 -0.772398 1.35913 0.0489034 0.0482884 2.5376e-05 0.0485732 8.55362e-07 272.695 
-0.37 -0.27 -0.482221 1.40463 0.0488075 0.0484194 1.89949e-05 0.0486041 8.55943e-07 272.683 
-0.35 -0.27 -0.862719 1.71406 0.0488096 0.0483945 6.01689e-05 0.0485717 8.55682e-07 272.585 
-0.33 -0.27 -1.24429 1.23125 0.04874 0.0482583 6.45976e-05 0.0484591 8.53662e-07 272.596 
-0.41 -0.37 -0.234112 0.591445 0.0489262 0.0484126 1.58952e-05 0.0486551 8.55253e-07 273.19 
-0.35 -0.37 -0.816637 1.23922 0.048795 0.0484281 5.33598e-05 0.0486267 8.55258e-07 273.028 
-0.33 -0.37 -0.809848 0.360943 0.0488114 0.0484996 1.85631e-05 0.0486295 8.54725e-07 273.215 
-0.33 -0.35 -1.35043 0.885496 0.0488341 0.0484846 4.77551e-05 0.0486703 8.55469e-07 273.206 
-0.33 -0.31 -0.968603 1.29218 0.0488056 0.0483361 9.19757e-05 0.0485922 8.5523e-07 272.844 
-0.35 -0.25 -0.970106 1.69889 0.0487839 0.0483371 5.98883e-05 0.0485986 8.55721e-07 272.723 
-0.31 -0.49 -0.715891 0.46408 0.0487517 0.0486023 0.000106802 0.0487355 8.54762e-07 273.798 
-0.29 -0.49 -1.02019 -0.14821 0.04871 0.0485898 1.29817e-05 0.048612 8.53724e-07 273.436 
-0.27 -0.49 -0.959335 0.00895473 0.0486588 0.0484518 0.000112427 0.0485556 8.54359e-07 272.916 
-0.31 -0.47 -1.04261 0.637735 0.0487964 0.0486222 8.63703e-05 0.048698 8.54581e-07 273.646 
-0.29 -0.47 -0.856906 -0.104194 0.0487529 0.0485299 0.000137429 0.0486691 8.5553e-07 273.18 
-0.27 -0.47 -0.689689 -0.181641 0.0487048 0.0484765 9.84689e-05 0.0485652 8.541e-07 273.053 
-0.31 -0.45 -0.329548 0.711783 0.0488239 0.048573 4.63149e-05 0.0486393 8.56237e-07 272.787 
-0.29 -0.45 -0.57798 0.12 0.0487774 0.0485363 0.000134373 0.0486421 8.54668e-07 273.303 
-0.27 -0.45 -0.920641 0.00365353 0.0488309 0.0485124 0.00014718 0.0486175 8.54498e-07 273.22 
-0.31 -0.43 -0.88119 0.327074 0.0488145 0.0485433 9.49516e-05 0.048675 8.57231e-07 272.671 
-0.29 -0.43 -0.982828 0.658071 0.0488224 0.0485101 0.000131772 0.0486304 8.55232e-07 273.058 
-0.27 -0.43 -1.22215 0.241028 0.0488368 0.0484859 0.00015176 0.0486355 8.55025e-07 273.153 
-0.31 -0.41 -1.33279 0.278286 0.0488195 0.0485081 0.000114502 0.0486231 8.54542e-07 273.237 
-0.25 -0.43 -1.29791 0.298256 0.0487688 0.0485129 0.000176171 0.0486291 8.53601e-07 273.572 
-0.29 -0.41 -1.18095 0.512356 0.0488649 0.0485471 0.000108508 0.0486862 8.54977e-07 273.452 
-0.27 -0.41 -1.35344 0.355624 0.0488251 0.0484088 0.000142761 0.0486326 8.54555e-07 273.286 
-0.31 -0.39 -1.40679 0.623177 0.0487905 0.0484685 7.1675e-05 0.0486039 8.54571e-07 273.12 
-0.25 -0.41 -1.30421 0.401728 0.0488366 0.0485591 0.0001713 0.0486648 8.55856e-07 273.052 
-0.29 -0.39 -1.62201 0.224835 0.0487841 0.0484598 0.000119274 0.0485996 8.54525e-07 273.11 
-0.27 -0.39 -1.68497 0.736971 0.0487389 0.0484213 0.00020155 0.0485841 8.54027e-07 273.183 
-0.31 -0.37 -0.990317 0.795654 0.0487524 0.0484089 7.03065e-05 0.0486105 8.55531e-07 272.851 
-0.25 -0.39 -1.82275 0.352848 0.0487272 0.0484962 0.000174634 0.0486168 8.55058e-07 273.037 
-0.29 -0.37 -1.40277 0.543034 0.0487962 0.0484179 0.00012586 0.0486063 8.5518e-07 272.938 
-0.27 -0.37 -1.28941 0.693048 0.0488851 0.048428 0.000119487 0.0486741 8.55239e-07 273.301 
-0.31 -0.35 -1.49014 0.758113 0.0488301 0.0483633 3.24036e-05 0.0486666 8.55262e-07 273.251 
-0.29 -0.35 -0.973967 0.661679 0.0488116 0.0483748 9.50109e-05 0.0486232 8.55347e-07 272.981 
-0.27 -0.35 -1.31061 0.801061 0.0488071 0.0483813 0.000103484 0.0486017 8.55759e-07 272.728 
-0.31 -0.33 -0.895195 0.593722 0.0488138 0.0483754 6.2511e-05 0.0486123 8.54559e-07 273.171 
-0.29 -0.33 -1.37377 0.872176 0.0487965 0.0483042 7.20477e-05 0.0485585 8.53928e-07 273.07 
-0.27 -0.33 -1.44045 0.833259 0.0487802 0.0484172 0.000167476 0.048612 8.55553e-07 272.852 
-0.31 -0.31 -1.16913 0.692636 0.0488939 0.0484386 0.000127479 0.0486475 8.55675e-07 273.012 
-0.29 -0.31 -1.27402 0.858544 0.0488812 0.048294 0.000109749 0.0486349 8.55642e-07 272.952 
-0.27 -0.31 -1.67315 1.49711 0.0488826 0.0484115 0.000136472 0.0486261 8.55118e-07 273.07 
-0.31 -0.29 -0.920711 0.956561 0.0488539 0.048395 8.43715e-05 0.0486523 8.55538e-07 273.083 
-0.25 -0.31 -1.8722 0.960928 0.0488323 0.0484569 0.000194128 0.0486782 8.56428e-07 272.944 
-0.29 -0.29 -1.49159 1.2933 0.0488594 0.0483222 9.62235e-05 0.048571 8.54685e-07 272.898 
-0.27 -0.29 -1.60491 1.62354 0.0488681 0.0483302 0.000153794 0.0485331 8.53599e-07 273.032 
-0.31 -0.27 -1.19306 1.12986 0.0487448 0.0483667 8.80102e-05 0.0486394 8.54851e-07 273.23 
-0.25 -0.29 -2.0883 1.32981 0.0488716 0.0484422 0.000189571 0.0486492 8.55234e-07 273.162 
-0.29 -0.27 -1.25298 1.8975 0.0487613 0.0482797 0.00015402 0.0485487 8.53352e-07 273.199 
-0.27 -0.27 -1.76793 1.87099 0.0487192 0.0482557 9.53047e-05 0.0484918 8.52194e-07 273.25 
-0.25 -0.27 -1.84501 1.55135 0.0488032 0.0484119 0.000187454 0.0486153 8.55358e-07 272.933 
-0.33 -0.45 -0.828155 0.414832 0.0488667 0.0486128 5.90307e-05 0.0486795 8.55563e-07 273.227 
-0.33 -0.41 -1.28566 0.190813 0.0487485 0.048505 7.53703e-05 0.048599 8.55271e-07 272.869 
-0.33 -0.39 -1.10147 0.419772 0.0487573 0.0484656 -4.70978e-06 0.048584 8.5438e-07 273.069 
-0.33 -0.33 -0.891356 0.877159 0.0489011 0.0484605 8.75988e-05 0.0486729 8.55069e-07 273.349 
-0.25 -0.49 -0.816593 -0.0558745 0.0486578 0.0485638 0.000101097 0.0486962 8.56307e-07 273.084 
-0.25 -0.47 -0.678671 0.170952 0.0487719 0.048543 9.19008e-05 0.0486675 8.55545e-07 273.166 
-0.25 -0.45 -1.31352 0.00436123 0.0487635 0.0485156 9.22589e-05 0.0486773 8.54546e-07 273.541 
-0.25 -0.37 -1.47369 0.579281 0.048856 0.0485687 0.000151778 0.048726 8.56339e-07 273.241 
-0.25 -0.35 -1.49895 0.883026 0.0489037 0.048534 0.000143984 0.048679 8.55796e-07 273.151 
-0.25 -0.33 -1.63982 1.10172 0.0487125 0.0485283 8.34628e-05 0.0486592 8.55987e-07 272.978 
-0.49 -0.25 -0.0723744 1.25359 0.0487902 0.0484808 -0.000151165 0.0486621 8.55317e-07 273.208 
-0.47 -0.25 -0.379959 1.12223 0.0487725 0.0484413 -7.75936e-05 0.0486015 8.5584e-07 272.702 
-0.45 -0.25 -0.502457 1.19704 0.0486776 0.0483411 -6.92216e-05 0.0485464 8.54337e-07 272.872 
-0.49 -0.23 0.0604939 1.32745 0.0485604 0.0484404 -0.000173249 0.0484955 8.53765e-07 272.768 
-0.47 -0.23 -0.231735 1.57148 0.0486252 0.04833 -0.000146302 0.0484942 8.54191e-07 272.625 
-0.45 -0.23 -0.634783 1.14372 0.0487142 0.0483757 -0.000111655 0.0485755 8.53484e-07 273.308 
-0.49 -0.21 -0.245386 1.38565 0.0487766 0.0484571 -0.000193224 0.0486012 8.56507e-07 272.487 
-0.43 -0.23 -0.648358 1.25497 0.0487707 0.0484692 -9.44965e-05 0.0485633 8.54597e-07 272.883 
-0.47 -0.21 0.0416222 1.42367 0.0488109 0.0482916 -0.000169189 0.0485744 8.55472e-07 272.667 
-0.41 -0.23 -0.543176 1.58912 0.0488499 0.0483615 3.91096e-06 0.0486095 8.55409e-07 272.883 
-0.45 -0.21 -0.138036 1.49783 0.0488338 0.0483524 -0.000146122 0.0486254 8.54889e-07 273.139 
-0.49 -0.19 -0.0888406 1.38219 0.0489273 0.048459 -0.00015881 0.0486426 8.57315e-07 272.463 
-0.39 -0.23 -0.459976 1.65001 0.0488649 0.0483161 -2.74328e-05 0.0486408 8.55001e-07 273.19 
-0.43 -0.21 -0.636312 1.51878 0.048891 0.0484553 -0.000109847 0.0486521 8.54726e-07 273.341 
-0.47 -0.19 -0.233534 1.48756 0.0488378 0.0482718 -0.000149554 0.0485501 8.55333e-07 272.575 
-0.41 -0.21 -0.915252 1.71931 0.0488315 0.0483018 -4.4826e-05 0.0485727 8.5385e-07 273.175 
-0.45 -0.19 -0.494365 1.75217 0.0488645 0.0483921 -0.000126291 0.0486116 8.5561e-07 272.831 
-0.49 -0.17 0.187268 1.35359 0.0488116 0.0484695 -0.000185927 0.048678 8.56895e-07 272.795 
-0.39 -0.21 -1.09647 2.00727 0.0488739 0.0483024 -3.31251e-05 0.0485839 8.56059e-07 272.533 
-0.43 -0.19 -0.604542 1.84586 0.0487872 0.0483222 -0.000121075 0.0485569 8.5442e-07 272.904 
-0.47 -0.17 -0.186236 2.06856 0.0488327 0.0482519 -0.000120276 0.0485528 8.53917e-07 273.042 
-0.41 -0.19 -0.856496 1.72613 0.0488208 0.0483563 -6.38979e-05 0.0486184 8.55261e-07 272.981 
-0.45 -0.17 -0.354839 1.7478 0.0488313 0.0483465 -0.000160433 0.0485931 8.53806e-07 273.304 
-0.49 -0.15 -0.0215393 1.26664 0.0487594 0.0483431 -0.000164649 0.0485488 8.5499e-07 272.677 
-0.39 -0.19 -1.13856 2.36594 0.0487924 0.0481922 -4.70037e-05 0.0485092 8.54747e-07 272.532 
-0.43 -0.17 -0.83395 2.11437 0.0488879 0.0483131 -7.15287e-05 0.0486304 8.55361e-07 273.017 
-0.47 -0.15 0.296279 1.86501 0.0488189 0.0482906 -0.000148337 0.0484878 8.54468e-07 272.501 
-0.41 -0.17 -1.01468 2.192 0.0488228 0.04834 -5.9403e-05 0.0486054 8.54472e-07 273.16 
-0.45 -0.15 -0.172286 2.5342 0.0488279 0.0483471 -0.000139243 0.04859 8.53142e-07 273.499 
-0.39 -0.17 -1.10551 2.20915 0.0487736 0.0481913 -4.63856e-05 0.0484822 8.53341e-07 272.829 
-0.43 -0.15 -0.581844 2.20064 0.0487355 0.048188 -3.42076e-05 0.0485315 8.54302e-07 272.799 
-0.41 -0.15 -0.857798 2.25086 0.0488206 0.0483095 -2.20696e-05 0.0485795 8.54257e-07 273.083 
-0.39 -0.15 -1.08067 2.63879 0.0487722 0.0482484 -3.03346e-05 0.0485354 8.52795e-07 273.303 
-0.43 -0.25 -0.156278 1.49554 0.048786 0.0486008 -7.09244e-06 0.0486539 8.56179e-07 272.887 
-0.41 -0.25 -0.230906 1.46144 0.0488363 0.0483415 -2.475e-06 0.0485994 8.55033e-07 272.947 
-0.39 -0.25 -0.368202 1.72478 0.0488241 0.0483476 -3.82138e-05 0.0485611 8.55684e-07 272.525 
-0.33 -0.25 -0.919742 1.63984 0.0488232 0.04826 4.89102e-05 0.0485527 8.54764e-07 272.771 
-0.37 -0.25 -0.792208 1.67459 0.04878 0.0482877 3.94622e-06 0.0485464 8.55492e-07 272.503 
-0.37 -0.23 -0.675124 2.30859 0.0488366 0.0483117 -1.83871e-05 0.04868 8.56792e-07 272.839 
-0.35 -0.23 -0.853169 1.7924 0.048806 0.0482924 1.0894e-05 0.0485793 8.55298e-07 272.75 
-0.37 -0.21 -1.41427 2.04587 0.0488568 0.0482577 3.91284e-06 0.0485748 8.55181e-07 272.762 
-0.35 -0.21 -1.05851 1.76324 0.048876 0.0483178 1.2126e-05 0.0486021 8.54955e-07 272.987 
-0.33 -0.21 -1.26516 2.52581 0.0489396 0.0483251 1.12752e-06 0.048675 8.57715e-07 272.517 
-0.37 -0.19 -1.18516 2.14965 0.0489256 0.0483085 2.15294e-05 0.0486346 8.56685e-07 272.618 
-0.35 -0.19 -1.50986 1.79954 0.0488868 0.0482924 -3.61311e-05 0.0485915 8.56214e-07 272.526 
-0.33 -0.19 -1.43017 2.78038 0.0487975 0.048239 6.5563e-05 0.0485669 8.56056e-07 272.438 
-0.37 -0.17 -1.13632 2.37313 0.048754 0.0482499 -7.69018e-05 0.0485058 8.54207e-07 272.685 
-0.35 -0.17 -1.50441 2.18578 0.0487737 0.048249 4.49661e-05 0.0485424 8.55096e-07 272.607 
-0.33 -0.17 -1.75954 2.85283 0.0487635 0.0481898 6.93617e-05 0.0484819 8.55066e-07 272.276 
-0.37 -0.15 -1.51782 2.72087 0.0487729 0.0482026 -6.227e-06 0.0484393 8.50996e-07 273.338 
-0.35 -0.15 -1.66402 2.43382 0.0487382 0.0481769 -2.33458e-05 0.0484981 8.53032e-07 273.017 
-0.33 -0.15 -1.79145 2.68335 0.048775 0.0481637 3.93097e-05 0.0484795 8.54605e-07 272.41 
-0.37 -0.13 -1.26792 2.8752 0.0487391 0.0481954 3.45414e-05 0.0484484 8.52193e-07 273.006 
-0.35 -0.13 -1.58924 3.02963 0.0486502 0.0481469 -1.08019e-05 0.0484082 8.51646e-07 272.954 
-0.33 -0.13 -2.04202 2.68477 0.0487289 0.048192 -1.29608e-05 0.0484224 8.53707e-07 272.375 
-0.37 -0.11 -1.11002 3.13669 0.0488163 0.0481738 3.82277e-05 0.048515 8.52907e-07 273.152 
-0.35 -0.11 -1.75414 3.37675 0.0488237 0.0482891 1.92516e-05 0.0485117 8.53108e-07 273.069 
-0.33 -0.11 -1.64514 2.7655 0.0487001 0.0481052 -4.78376e-05 0.0483766 8.52901e-07 272.375 
-0.35 -0.09 -1.36718 3.69378 0.0487795 0.0482636 4.52189e-05 0.0484832 8.51673e-07 273.368 
-0.49 -0.13 0.000809695 1.45315 0.0486435 0.048334 -0.00018679 0.0484765 8.54459e-07 272.439 
-0.47 -0.13 -0.160263 1.77837 0.0486397 0.0482352 -0.000209577 0.0483808 8.53107e-07 272.332 
-0.45 -0.13 -0.0958315 2.87081 0.0487226 0.0482872 -0.000118898 0.0485288 8.54996e-07 272.562 
-0.49 -0.11 -0.0813088 1.42582 0.048652 0.0483322 -0.00024907 0.0484746 8.53687e-07 272.675 
-0.43 -0.13 -0.339946 2.59828 0.0487423 0.0481622 -9.71386e-05 0.0484696 8.53212e-07 272.799 
-0.47 -0.11 -0.410524 2.24202 0.0486868 0.0482563 -0.000211764 0.0484664 8.53711e-07 272.621 
-0.41 -0.13 -1.01874 2.55064 0.0488052 0.0482641 -5.9668e-05 0.0485401 8.52939e-07 273.283 
-0.45 -0.11 -0.404393 2.59965 0.0487258 0.0481726 -0.000151413 0.0484638 8.52547e-07 272.979 
-0.49 -0.09 -0.314339 1.91237 0.0485391 0.0483467 -0.000197292 0.0484661 8.52958e-07 272.86 
-0.39 -0.13 -1.32926 2.67807 0.0488159 0.0482472 -2.91463e-05 0.0485461 8.53503e-07 273.136 
-0.43 -0.11 -0.394364 2.83556 0.0487669 0.0481416 -0.000144788 0.0484466 8.52848e-07 272.786 
-0.47 -0.09 -0.596833 2.46898 0.0484933 0.0482058 -0.000217586 0.0484181 8.53284e-07 272.486 
-0.41 -0.11 -0.422595 3.24435 0.0487056 0.0481995 -3.46342e-05 0.0484415 8.52309e-07 272.93 
-0.45 -0.09 -0.557923 2.54771 0.048482 0.0480869 -0.000240946 0.0482578 8.50316e-07 272.532 
-0.39 -0.11 -0.781361 2.84975 0.0487064 0.0481723 -2.15739e-06 0.0484872 8.52771e-07 273.039 
-0.43 -0.09 -0.842889 3.11138 0.048553 0.0480836 -0.000127494 0.0483446 8.50214e-07 273.055 
-0.41 -0.09 -0.930167 3.37012 0.0486151 0.0480945 -0.000114231 0.0483968 8.51496e-07 272.938 
-0.39 -0.09 -0.894614 2.96264 0.0486843 0.0482335 -2.19567e-05 0.0484655 8.5247e-07 273.013 
-0.37 -0.09 -1.35525 3.5492 0.0486646 0.048107 -5.44972e-05 0.0484037 8.51579e-07 272.95 
-0.35 -0.03 -1.92002 3.84626 0.0486897 0.048139 -9.901e-05 0.0484018 8.52933e-07 272.506 
-0.37 -0.07 -1.40093 3.68879 0.048653 0.0480638 -5.73722e-05 0.048409 8.51687e-07 272.946 
-0.41 -0.05 -1.03618 3.58353 0.0486855 0.048061 -0.000107867 0.0483868 8.51875e-07 272.76 
-0.45 -0.03 -0.741108 3.31402 0.0486065 0.0479565 -0.000208994 0.0483043 8.51467e-07 272.426 
-0.35 -0.07 -1.40498 3.70796 0.0486675 0.0481616 -4.85626e-05 0.048475 8.52436e-07 273.078 
-0.39 -0.05 -1.32932 3.61395 0.0486862 0.0481628 -0.00011853 0.0484249 8.52763e-07 272.691 
-0.43 -0.03 -0.699636 3.81586 0.0486463 0.048015 -0.000208053 0.0483153 8.51211e-07 272.57 
-0.33 -0.07 -1.47752 3.65228 0.0487985 0.0481221 6.14647e-07 0.0484662 8.52534e-07 272.997 
-0.37 -0.05 -1.68694 3.9412 0.0486988 0.0480749 -7.70608e-05 0.0483552 8.50867e-07 272.905 
-0.41 -0.03 -0.636997 3.81878 0.0487234 0.0480391 -0.000174073 0.048299 8.50074e-07 272.842 
-0.35 -0.05 -1.55324 3.41879 0.0486852 0.0481593 -0.00010241 0.0484317 8.53121e-07 272.615 
-0.39 -0.03 -1.14679 4.03268 0.0486821 0.0481392 -8.18437e-05 0.0483801 8.50622e-07 273.124 
-0.33 -0.05 -1.88198 4.11251 0.0486828 0.0480741 -6.51471e-05 0.0483518 8.52145e-07 272.477 
-0.37 -0.03 -1.45971 3.95794 0.0487217 0.0480589 -6.99772e-05 0.0483201 8.5097e-07 272.674 
-0.33 -0.03 -2.05709 4.17232 0.0486482 0.0480613 -1.47837e-05 0.0484117 8.51477e-07 273.028 
-0.49 -0.07 0.102228 2.30995 0.0486375 0.0483817 -0.000162779 0.048497 8.52552e-07 273.164 
-0.47 -0.07 -0.0188579 2.49133 0.0486671 0.048239 -0.000237787 0.0485358 8.53755e-07 272.998 
-0.45 -0.07 -0.487792 2.77244 0.0486895 0.0480483 -0.000187609 0.0484048 8.52809e-07 272.563 
-0.49 -0.05 -0.220133 2.33601 0.048576 0.0483101 -0.000255699 0.048437 8.51565e-07 273.143 
-0.43 -0.07 -0.779083 3.43023 0.0486117 0.0480657 -0.000150629 0.0483747 8.50905e-07 273.003 
-0.47 -0.05 -0.683537 2.76934 0.0486651 0.04831 -0.000257077 0.0484741 8.53403e-07 272.763 
-0.41 -0.07 -0.998887 3.4496 0.0486103 0.0481085 -0.000142529 0.0483245 8.50647e-07 272.803 
-0.45 -0.05 -0.565597 3.01578 0.0486404 0.0479735 -0.000212716 0.0483328 8.50446e-07 272.914 
-0.49 -0.03 -0.0923354 2.70402 0.0486474 0.0482932 -0.00024816 0.0484146 8.51767e-07 272.952 
-0.39 -0.07 -1.35952 3.20962 0.04861 0.0481667 -9.10652e-05 0.0483882 8.53424e-07 272.273 
-0.43 -0.05 -0.629064 3.71321 0.0486958 0.0480722 -0.000175061 0.0484314 8.51519e-07 273.126 
-0.47 -0.03 -0.19625 2.80131 0.0486482 0.0482488 -0.000219604 0.0484233 8.5251e-07 272.763 
-0.27 -0.07 -2.54039 3.64064 0.0486463 0.0481201 8.94009e-05 0.0483558 8.53159e-07 272.175 
-0.31 -0.05 -2.13224 3.9024 0.0486961 0.0480718 5.35358e-05 0.0483861 8.51837e-07 272.769 
-0.27 -0.09 -2.44171 3.64053 0.0487991 0.04822 4.66276e-05 0.0485191 8.54256e-07 272.744 
-0.31 -0.07 -2.16279 3.62826 0.0488438 0.048151 2.68934e-05 0.0485163 8.53284e-07 273.039 
-0.29 -0.07 -2.51348 3.71454 0.0488077 0.0481571 7.16649e-05 0.0484484 8.52316e-07 272.966 
-0.25 -0.07 -2.71062 3.24055 0.0487077 0.0481841 9.14259e-05 0.0484374 8.52449e-07 272.862 
-0.29 -0.05 -2.08153 3.7692 0.0486533 0.0481084 9.87091e-05 0.0483195 8.5168e-07 272.443 
-0.27 -0.05 -2.39427 3.84663 0.0486462 0.0481328 0.000135966 0.0483682 8.51913e-07 272.643 
-0.31 -0.03 -2.2428 4.1182 0.0485671 0.0479459 1.25504e-05 0.0482285 8.50605e-07 272.274 
-0.25 -0.05 -2.37653 3.40453 0.0486449 0.0481459 8.87631e-05 0.048369 8.52366e-07 272.503 
-0.29 -0.03 -2.63362 4.1029 0.0486515 0.0480847 7.87515e-05 0.0483466 8.50732e-07 272.9 
-0.27 -0.03 -2.62547 3.6644 0.0487267 0.0481421 0.000105139 0.0484653 8.54715e-07 272.295 
-0.25 -0.03 -2.48161 3.49389 0.048694 0.048211 0.000116772 0.0484671 8.53924e-07 272.558 
-0.27 -0.01 -1.97789 3.86804 0.048609 0.0481316 9.78693e-05 0.0484397 8.52683e-07 272.8 
-0.31 -0.25 -1.33708 1.51039 0.0489173 0.0483668 8.31305e-05 0.0486223 8.55378e-07 272.966 
-0.29 -0.25 -1.907 2.04818 0.0489928 0.0482753 0.000100043 0.0486198 8.5483e-07 273.127 
-0.27 -0.25 -1.71792 1.97374 0.0489433 0.048255 0.00012441 0.0486373 8.54775e-07 273.242 
-0.29 -0.11 -2.41045 3.06523 0.0487334 0.0482155 5.12023e-05 0.0485028 8.55879e-07 272.135 
-0.33 -0.09 -1.95172 3.00288 0.0487923 0.0481623 8.67292e-05 0.0484183 8.51548e-07 273.043 
-0.27 -0.11 -2.60538 3.47394 0.0487255 0.0481797 5.09102e-05 0.0484837 8.54157e-07 272.577 
-0.31 -0.09 -2.17869 3.51073 0.048692 0.0481186 5.62309e-06 0.0484266 8.49993e-07 273.589 
-0.29 -0.09 -2.19177 3.46894 0.0487092 0.048165 9.42938e-06 0.0483827 8.51108e-07 272.983 
-0.33 -0.23 -1.27362 1.74034 0.048838 0.0482756 4.48205e-05 0.0486663 8.57469e-07 272.546 
-0.31 -0.23 -1.68588 2.04629 0.0488798 0.0483168 -1.7087e-05 0.0486397 8.56535e-07 272.694 
-0.29 -0.23 -1.74142 2.14268 0.0488339 0.0482231 0.000108978 0.0486078 8.55762e-07 272.762 
-0.27 -0.23 -2.05911 1.78339 0.0488899 0.0482476 0.00012956 0.0486208 8.56521e-07 272.593 
-0.31 -0.21 -1.78695 2.37246 0.0487904 0.0481913 5.02802e-05 0.0485132 8.55906e-07 272.185 
-0.29 -0.21 -2.07156 2.20118 0.048834 0.0482374 6.28025e-05 0.0486106 8.56311e-07 272.603 
-0.27 -0.21 -1.95999 2.00423 0.0488702 0.0482084 0.000102692 0.0485774 8.54904e-07 272.864 
-0.31 -0.19 -1.62509 2.49067 0.0487926 0.0482778 7.2082e-05 0.0485054 8.54318e-07 272.647 
-0.25 -0.21 -2.02889 1.67394 0.0489151 0.0482936 0.000107344 0.0486449 8.55657e-07 273.003 
-0.29 -0.19 -1.60815 2.53557 0.0487568 0.0482043 8.11827e-05 0.048454 8.54887e-07 272.177 
-0.27 -0.19 -1.98337 1.95674 0.0486986 0.0481162 0.000128035 0.0484209 8.51175e-07 273.177 
-0.31 -0.17 -1.45668 2.26675 0.0487903 0.0482711 6.99936e-05 0.0485438 8.54585e-07 272.778 
-0.25 -0.19 -2.10854 2.19985 0.0487395 0.0483071 8.37145e-05 0.0484771 8.53535e-07 272.738 
-0.29 -0.17 -1.36335 2.55093 0.0488198 0.0481565 7.36247e-05 0.0485034 8.53646e-07 272.851 
-0.27 -0.17 -1.99556 2.79676 0.0487622 0.0481841 6.89788e-05 0.048506 8.53007e-07 273.069 
-0.31 -0.15 -1.88682 2.44188 0.0487871 0.0482765 4.29142e-05 0.0485675 8.56088e-07 272.432 
-0.25 -0.17 -2.82326 2.53103 0.0487943 0.048334 8.85839e-05 0.0485186 8.52788e-07 273.211 
-0.29 -0.15 -2.20525 2.92931 0.0487511 0.0481142 0.000138092 0.0484571 8.53713e-07 272.569 
-0.27 -0.15 -2.37354 3.09594 0.0488276 0.0482963 6.64807e-05 0.0485785 8.55635e-07 272.638 
-0.31 -0.13 -2.19145 2.8149 0.0487012 0.0481704 7.72032e-05 0.0484779 8.53769e-07 272.668 
-0.25 -0.15 -2.4164 2.79873 0.0488708 0.0482675 5.73941e-05 0.0485484 8.5462e-07 272.792 
-0.29 -0.13 -2.42457 3.1111 0.0487976 0.0481992 2.96928e-05 0.0485548 8.55414e-07 272.575 
-0.27 -0.13 -2.5268 3.10564 0.0487619 0.0482294 4.82671e-05 0.0485635 8.55062e-07 272.736 
-0.31 -0.11 -1.8671 3.52169 0.0487617 0.0481973 3.30207e-05 0.0484805 8.52983e-07 272.933 
-0.25 -0.13 -2.5604 2.94565 0.048766 0.0482065 9.5377e-05 0.0484788 8.53133e-07 272.876 
-0.25 -0.25 -1.70112 1.58317 0.0489556 0.048354 0.000132602 0.048692 8.56554e-07 272.981 
-0.25 -0.23 -2.15135 1.99404 0.0488657 0.0483039 0.000121597 0.0485874 8.54849e-07 272.939 
-0.25 -0.11 -2.60876 2.87629 0.0487771 0.0481974 2.51948e-05 0.0484878 8.52726e-07 273.057 
-0.25 -0.09 -2.60934 3.04195 0.0486844 0.0481758 0.000105013 0.0484786 8.52144e-07 273.192 
-0.25 -0.01 -2.53353 3.7265 0.0486282 0.0481761 0.000134699 0.048445 8.53613e-07 272.533 
-0.23 -0.49 -0.843625 0.0468592 0.0486021 0.0485357 0.000109494 0.0485802 8.5498e-07 272.856 
-0.21 -0.49 -0.754419 -0.163433 0.0486269 0.0484656 8.44747e-05 0.0485438 8.53632e-07 273.082 
-0.19 -0.49 -0.859057 -0.102979 0.0485698 0.0485532 0.000220767 0.0485579 8.53463e-07 273.216 
-0.23 -0.47 -0.810159 -0.22741 0.0487787 0.048533 0.00010794 0.0487021 8.55872e-07 273.256 
-0.17 -0.49 -0.756395 0.278442 0.0485684 0.0485171 0.000161813 0.0485571 8.53949e-07 273.056 
-0.21 -0.47 -1.23275 0.369562 0.0486807 0.0484219 0.00013797 0.0485778 8.5366e-07 273.264 
-0.15 -0.49 -0.89974 0.0012314 0.0485941 0.0485561 0.00022927 0.0485519 8.55449e-07 272.547 