ITEM: TIMESTEP
857500
ITEM: NUMBER OF CELLS
2500
ITEM: BOX BOUNDS ss ss pp
-0.5 0.5
-0.5 0.5
-0.5 0.5
ITEM: CELLS xc yc f_U[*] f_V[*] f_Tau[1] f_Tau[2] f_Tau[3] f_Press[*] f_Mrho[*] f_Ttra[*] 
-0.49 -0.49 -0.223728 0.169337 0.04873 0.0485531 -3.6351e-06 0.0486875 8.56073e-07 273.11 
-0.47 -0.49 -0.394448 0.00957879 0.0486419 0.0485166 -1.39424e-05 0.0485739 8.54598e-07 272.943 
-0.45 -0.49 -0.101927 -0.0843324 0.0485991 0.0484999 -1.69992e-05 0.0485423 8.54667e-07 272.743 
-0.49 -0.47 0.180487 0.19988 0.0486794 0.0485245 -1.32633e-05 0.0485854 8.53463e-07 273.371 
-0.43 -0.49 -0.0206898 -0.196389 0.0485506 0.0485232 4.66408e-06 0.0485671 8.54154e-07 273.047 
-0.47 -0.47 0.156447 0.0473462 0.0487325 0.0485302 -4.38432e-06 0.0486735 8.55069e-07 273.352 
-0.41 -0.49 0.265593 0.0433169 0.0486524 0.0484861 3.2371e-05 0.0485368 8.54101e-07 272.893 
-0.45 -0.47 -0.0387593 0.0911593 0.0486962 0.048472 6.48265e-05 0.0485533 8.54419e-07 272.884 
-0.49 -0.45 -0.109811 0.103506 0.0487199 0.0485504 8.22679e-06 0.0486597 8.55132e-07 273.254 
-0.39 -0.49 0.187599 -0.0966799 0.0487141 0.0484681 -5.63736e-06 0.0485774 8.54551e-07 272.977 
-0.43 -0.47 -0.0154457 -0.264944 0.0487088 0.048581 1.15254e-05 0.0486864 8.56384e-07 273.004 
-0.47 -0.45 -0.0696074 0.225557 0.0486939 0.0484653 4.94409e-05 0.0485556 8.53232e-07 273.277 
-0.37 -0.49 0.174915 0.127694 0.048745 0.0485109 5.49614e-05 0.048604 8.55869e-07 272.706 
-0.41 -0.47 -0.26172 0.0151295 0.0486136 0.0484753 -1.49719e-05 0.0485435 8.55541e-07 272.471 
-0.45 -0.45 -0.309831 0.113204 0.0487929 0.0485288 -4.22862e-06 0.0486623 8.55784e-07 273.061 
-0.49 -0.43 -0.0519423 0.410654 0.0486489 0.0485193 -9.96007e-06 0.0486035 8.55763e-07 272.737 
-0.35 -0.49 0.0792996 0.105352 0.0487423 0.0486548 0.000130906 0.0486648 8.56502e-07 272.846 
-0.39 -0.47 -0.389789 0.163162 0.0485754 0.048391 3.30752e-05 0.0484851 8.53242e-07 272.876 
-0.43 -0.45 -0.458744 0.122412 0.0488409 0.0485556 2.80168e-05 0.0486457 8.54149e-07 273.49 
-0.47 -0.43 -0.249464 0.313341 0.0487377 0.0484929 -1.80825e-05 0.048622 8.5614e-07 272.721 
-0.37 -0.47 -0.497381 0.0691263 0.0486522 0.0484565 -5.24682e-06 0.0485459 8.5382e-07 273.034 
-0.41 -0.45 -0.501151 0.0972269 0.0487866 0.0485325 6.22578e-05 0.0486644 8.5535e-07 273.211 
-0.45 -0.43 -0.53759 0.489905 0.0487103 0.0486621 -7.60177e-05 0.0486508 8.55183e-07 273.187 
-0.49 -0.41 -0.0480931 0.586731 0.0489185 0.0484847 -3.35921e-05 0.0486522 8.56906e-07 272.646 
-0.35 -0.47 -0.698513 0.271383 0.048727 0.0486027 9.70539e-05 0.0486794 8.5589e-07 273.123 
-0.39 -0.45 -0.625105 0.119668 0.0487494 0.0483545 -3.32632e-05 0.0485553 8.54066e-07 273.008 
-0.43 -0.43 -0.449876 -0.107629 0.0487152 0.0484193 -9.87393e-07 0.0485891 8.5496e-07 272.913 
-0.47 -0.41 -0.23199 0.442073 0.048856 0.0485338 -2.54117e-05 0.048693 8.56653e-07 272.955 
-0.37 -0.45 -0.800757 0.284856 0.0486498 0.0484787 2.22808e-05 0.0485307 8.54919e-07 272.598 
-0.41 -0.43 -0.672742 0.433276 0.0488222 0.0485609 1.64692e-05 0.0486636 8.5578e-07 273.069 
-0.45 -0.41 0.100978 0.216449 0.0488498 0.0486005 3.6603e-05 0.048732 8.56736e-07 273.148 
-0.49 -0.39 0.125821 0.424449 0.0487699 0.0484429 -5.37102e-05 0.0486142 8.56208e-07 272.655 
-0.35 -0.45 -0.794652 0.403293 0.048655 0.0485241 4.30219e-05 0.0485502 8.55355e-07 272.568 
-0.39 -0.43 -0.819537 0.155035 0.0488107 0.0483447 2.96371e-05 0.0485818 8.54893e-07 272.893 
-0.43 -0.41 -0.18671 0.309476 0.0487486 0.0485054 -4.80595e-05 0.0486263 8.54393e-07 273.303 
-0.47 -0.39 0.35424 0.366003 0.0488748 0.0485405 -9.30069e-06 0.0486607 8.56389e-07 272.858 
-0.37 -0.43 -0.982993 0.351527 0.0488502 0.0484594 3.6267e-05 0.048629 8.56289e-07 272.713 
-0.41 -0.41 -0.726306 0.567241 0.0486939 0.048452 9.30408e-06 0.0485744 8.54405e-07 273.007 
-0.45 -0.39 0.288882 0.500268 0.0488601 0.0484931 5.7207e-05 0.0487088 8.55165e-07 273.519 
-0.35 -0.43 -1.2952 0.414391 0.0488942 0.0485496 -3.22415e-06 0.0486785 8.56097e-07 273.052 
-0.39 -0.41 -0.675345 0.281331 0.0487607 0.0483951 -8.86381e-06 0.0485743 8.54777e-07 272.888 
-0.43 -0.39 -0.430638 1.02546 0.0488266 0.0485945 3.0497e-05 0.0487205 8.55357e-07 273.524 
-0.37 -0.41 -0.664275 0.644667 0.0487833 0.0484981 -2.30691e-05 0.0486454 8.55356e-07 273.103 
-0.41 -0.39 -0.51602 0.637631 0.0487564 0.0484097 -6.68813e-06 0.0485904 8.54851e-07 272.955 
-0.35 -0.41 -0.993425 0.631857 0.0487033 0.0484583 -2.82401e-05 0.0485509 8.54856e-07 272.731 
-0.39 -0.39 -0.605684 0.23013 0.0486966 0.0484396 6.70136e-06 0.048571 8.55337e-07 272.69 
-0.37 -0.39 -0.589044 0.541514 0.0487251 0.0484662 6.83013e-06 0.0485959 8.55117e-07 272.901 
-0.35 -0.39 -0.645984 0.964538 0.0487703 0.0484784 0.0001129 0.0485736 8.54735e-07 272.897 
-0.37 -0.37 -0.874419 0.538667 0.0488047 0.0484232 -3.63095e-05 0.0485615 8.53633e-07 273.182 
-0.33 -0.49 -0.281674 0.0799773 0.0486615 0.0484885 9.65824e-05 0.0485881 8.54616e-07 273.016 
-0.33 -0.47 -0.627587 0.581281 0.0487174 0.0485032 0.000111062 0.0486338 8.53612e-07 273.595 
-0.33 -0.43 -1.01692 0.168559 0.0487958 0.0484946 5.06323e-05 0.0486487 8.56402e-07 272.787 
-0.49 -0.37 -0.0726174 0.339246 0.0487384 0.0485744 -5.74381e-05 0.0486326 8.55245e-07 273.066 
-0.47 -0.37 -0.038583 0.50563 0.0487132 0.048363 -3.11193e-05 0.0485335 8.54812e-07 272.648 
-0.45 -0.37 -0.6272 0.7564 0.0487478 0.0485126 9.00779e-07 0.0485857 8.53301e-07 273.424 
-0.49 -0.35 0.0432003 0.413195 0.0486682 0.04851 -3.16537e-05 0.0485413 8.55112e-07 272.596 
-0.43 -0.37 -0.528771 1.06749 0.0488196 0.0485634 5.98658e-05 0.0486625 8.54196e-07 273.569 
-0.47 -0.35 0.0447101 0.658692 0.04873 0.0483632 -4.94844e-05 0.0485225 8.54082e-07 272.818 
-0.45 -0.35 -0.0207777 1.05842 0.0487747 0.0485048 -2.38384e-05 0.0486578 8.54492e-07 273.448 
-0.49 -0.33 -0.0206107 0.484905 0.0488713 0.0485093 -1.47772e-05 0.0487053 8.56452e-07 273.088 
-0.39 -0.37 -0.384325 0.646422 0.0488085 0.0484956 3.57965e-05 0.0485649 8.54472e-07 272.932 
-0.43 -0.35 -0.0899816 0.841718 0.0487744 0.0485106 -2.10877e-05 0.0486476 8.55728e-07 272.996 
-0.47 -0.33 -0.242774 0.617812 0.048879 0.0484654 -5.2015e-05 0.0486833 8.55348e-07 273.318 
-0.41 -0.35 -0.262132 0.613793 0.0488097 0.0484509 4.92678e-05 0.0486227 8.55154e-07 273.039 
-0.45 -0.33 -0.0881016 0.945335 0.0488388 0.0484171 -5.92975e-05 0.0486408 8.55569e-07 273.008 
-0.49 -0.31 -0.123067 0.564017 0.0487277 0.0484434 -5.47458e-05 0.0485418 8.53607e-07 273.079 
-0.39 -0.35 -0.735852 0.895478 0.0488886 0.0485404 1.57338e-05 0.0486681 8.55632e-07 273.142 
-0.43 -0.33 -0.150019 1.00385 0.0488924 0.0485007 1.41543e-06 0.0486893 8.55836e-07 273.195 
-0.47 -0.31 -0.158359 0.795392 0.0487361 0.0484803 -5.01432e-05 0.0486026 8.54652e-07 273.087 
-0.37 -0.35 -0.994436 1.01956 0.0488099 0.0484236 9.62722e-05 0.0485954 8.56091e-07 272.587 
-0.41 -0.33 -0.462282 0.960621 0.0488854 0.0484682 -5.66047e-05 0.0486653 8.56151e-07 272.96 
-0.45 -0.31 -0.222019 1.00564 0.0488401 0.048485 -0.00010703 0.0486547 8.55247e-07 273.189 
-0.49 -0.29 -0.153548 0.791207 0.0486623 0.0483866 -5.99196e-05 0.0485565 8.53419e-07 273.222 
-0.35 -0.35 -1.22049 0.904189 0.0488144 0.0483895 1.19905e-06 0.0485866 8.5363e-07 273.323 
-0.39 -0.33 -0.795691 1.2528 0.048849 0.0484742 1.00108e-05 0.0486061 8.55997e-07 272.677 
-0.43 -0.31 -0.453413 1.19143 0.0487968 0.0484119 -0.000117133 0.0486344 8.54708e-07 273.247 
-0.47 -0.29 -0.307839 0.76627 0.048726 0.0485609 -0.00011652 0.0486156 8.54785e-07 273.117 
-0.37 -0.33 -0.620799 1.17061 0.0489308 0.0485291 3.21103e-05 0.0486815 8.57106e-07 272.747 
-0.41 -0.31 -0.831994 1.15634 0.0488829 0.0483897 2.54966e-05 0.0486677 8.55683e-07 273.123 
-0.45 -0.29 -0.160521 1.04158 0.0487611 0.0484445 -2.01412e-05 0.048598 8.54451e-07 273.125 
-0.49 -0.27 -0.0447609 0.962968 0.0488154 0.0484448 -9.99236e-05 0.0486335 8.5492e-07 273.175 
-0.35 -0.33 -0.638879 0.976616 0.0488634 0.0483008 1.65117e-05 0.0485917 8.54747e-07 272.995 
-0.39 -0.31 -0.802262 1.32224 0.0489126 0.0484577 5.61119e-05 0.0486621 8.54518e-07 273.464 
-0.43 -0.29 -0.247975 1.5118 0.0487009 0.0483963 -6.32987e-05 0.0485828 8.5483e-07 272.918 
-0.47 -0.27 -0.108843 0.740656 0.048845 0.0485032 -0.000106694 0.0487131 8.5597e-07 273.286 
-0.37 -0.31 -0.684328 0.84567 0.0488537 0.0484693 4.33774e-05 0.0486419 8.56143e-07 272.831 
-0.41 -0.29 -0.182022 1.27632 0.0487173 0.0483041 -9.10704e-05 0.0485502 8.55063e-07 272.661 
-0.45 -0.27 -0.266572 1.14302 0.0488656 0.0483497 -5.19791e-05 0.0485968 8.55331e-07 272.837 
-0.35 -0.31 -0.940673 1.26957 0.0488793 0.0483712 2.71879e-05 0.0486297 8.55652e-07 272.92 
-0.39 -0.29 -0.270932 1.47215 0.0488241 0.0484487 3.61883e-06 0.0486023 8.53587e-07 273.426 
-0.43 -0.27 -0.381358 1.53135 0.048886 0.0485092 -1.71088e-05 0.0486831 8.55601e-07 273.235 
-0.37 -0.29 -0.741007 0.894461 0.0488551 0.0484768 4.90707e-06 0.0486889 8.5437e-07 273.662 
-0.41 -0.27 -0.34904 1.34556 0.048785 0.048347 -9.14419e-05 0.0485335 8.54104e-07 272.873 
-0.35 -0.29 -0.826899 1.47276 0.0488676 0.0484025 7.76351e-05 0.048605 8.54576e-07 273.125 
-0.39 -0.27 -0.630246 1.47041 0.0487035 0.0483654 -8.67051e-05 0.04856 8.54005e-07 273.054 
-0.33 -0.29 -0.883262 1.28567 0.0489126 0.0482676 3.21767e-05 0.048589 8.55592e-07 272.71 
-0.37 -0.27 -0.599707 1.41451 0.0487893 0.0483759 2.83225e-05 0.0485869 8.55302e-07 272.791 
-0.35 -0.27 -0.843832 1.61167 0.0488177 0.0483925 6.62896e-05 0.0485821 8.55409e-07 272.73 
-0.33 -0.27 -1.33394 1.26414 0.048751 0.0482512 7.61725e-05 0.048459 8.53905e-07 272.518 
-0.41 -0.37 -0.222584 0.452499 0.0488833 0.0484451 4.58233e-05 0.0486421 8.5516e-07 273.146 
-0.35 -0.37 -0.878483 1.32187 0.0487735 0.0484356 2.89874e-05 0.0486193 8.55089e-07 273.041 
-0.33 -0.37 -0.809663 0.495134 0.0487837 0.0484768 2.88851e-05 0.0486225 8.54533e-07 273.236 
-0.33 -0.35 -1.20902 0.860288 0.0488123 0.0484498 6.58144e-05 0.0486459 8.55519e-07 273.053 
-0.33 -0.31 -0.99876 1.16402 0.0488171 0.0483157 7.46843e-05 0.0485834 8.55122e-07 272.829 
-0.35 -0.25 -1.05261 1.67135 0.0487594 0.0483087 4.26663e-05 0.0485527 8.5488e-07 272.734 
-0.31 -0.49 -0.648736 0.392408 0.048727 0.0485666 0.000152554 0.0487123 8.54413e-07 273.78 
-0.29 -0.49 -0.986295 -0.115404 0.0486837 0.048551 2.72414e-05 0.0486068 8.53729e-07 273.405 
-0.27 -0.49 -0.964395 -0.0819045 0.0486362 0.0483876 0.000113693 0.0485164 8.54117e-07 272.773 
-0.31 -0.47 -1.03298 0.460923 0.0487553 0.0486062 0.000109461 0.0486874 8.54596e-07 273.581 
-0.29 -0.47 -0.815696 -0.0211932 0.0487308 0.048496 0.000155856 0.0486552 8.55302e-07 273.174 
-0.27 -0.47 -0.722475 -0.163792 0.0486809 0.0484479 9.43171e-05 0.0485556 8.54414e-07 272.898 
-0.31 -0.45 -0.388793 0.627884 0.0488167 0.0485702 5.49702e-05 0.0486574 8.56709e-07 272.739 
-0.29 -0.45 -0.660288 0.101787 0.0487954 0.048509 0.000140041 0.0486579 8.55167e-07 273.233 
-0.27 -0.45 -0.995131 -0.0589931 0.0488108 0.0484736 0.00015255 0.0486077 8.54675e-07 273.108 
-0.31 -0.43 -0.804403 0.31509 0.0487927 0.0485305 8.57768e-05 0.048683 8.57333e-07 272.683 
-0.29 -0.43 -0.930482 0.614651 0.0488042 0.0484701 0.000125552 0.0486127 8.55407e-07 272.902 
-0.27 -0.43 -1.19283 0.309324 0.0488448 0.0484846 0.000148958 0.0486514 8.55422e-07 273.115 
-0.31 -0.41 -1.33461 0.175108 0.0488218 0.0485152 0.000122744 0.0486444 8.55063e-07 273.19 
-0.25 -0.43 -1.26641 0.295116 0.0487959 0.0485133 0.000162207 0.0486335 8.53599e-07 273.597 
-0.29 -0.41 -1.16177 0.637074 0.0488304 0.0484883 9.84477e-05 0.0486512 8.54826e-07 273.304 
-0.27 -0.41 -1.34283 0.381131 0.0488004 0.0484274 0.000143471 0.0486231 8.54989e-07 273.094 
-0.31 -0.39 -1.54399 0.544063 0.0487736 0.0484816 5.64105e-05 0.0485971 8.54332e-07 273.158 
-0.25 -0.41 -1.36788 0.372728 0.0488299 0.0485525 0.000157686 0.0486615 8.55726e-07 273.075 
-0.29 -0.39 -1.71182 0.22991 0.0487746 0.0484117 0.000118007 0.0485783 8.54558e-07 272.98 
-0.27 -0.39 -1.68031 0.714916 0.0487405 0.0484278 0.00018359 0.0485909 8.54379e-07 273.108 
-0.31 -0.37 -0.967205 0.745794 0.0487228 0.0484059 8.51867e-05 0.0485992 8.5581e-07 272.698 
-0.25 -0.39 -1.82799 0.464961 0.0487031 0.0484778 0.000178105 0.0486059 8.5466e-07 273.103 
-0.29 -0.37 -1.33766 0.521953 0.0487618 0.0483966 0.000105357 0.0485714 8.54785e-07 272.869 
-0.27 -0.37 -1.24241 0.711463 0.0488242 0.0483916 0.000103566 0.0486298 8.54479e-07 273.295 
-0.31 -0.35 -1.32674 0.713411 0.0488254 0.0483761 3.94608e-05 0.0486589 8.5542e-07 273.157 
-0.29 -0.35 -0.968981 0.762242 0.0487807 0.0483677 8.67944e-05 0.0485849 8.54928e-07 272.899 
-0.27 -0.35 -1.40268 0.795296 0.0487518 0.0483544 9.45351e-05 0.0485412 8.55238e-07 272.555 
-0.31 -0.33 -0.899495 0.664643 0.0488172 0.0483653 6.33755e-05 0.0486136 8.54948e-07 273.054 
-0.29 -0.33 -1.44989 1.03916 0.0488209 0.0483143 8.16302e-05 0.0485797 8.54382e-07 273.044 
-0.27 -0.33 -1.59216 0.811316 0.0488142 0.0484034 0.000154545 0.0486022 8.55592e-07 272.784 
-0.31 -0.31 -1.192 0.750162 0.0488922 0.0484219 0.000136696 0.048638 8.55625e-07 272.975 
-0.29 -0.31 -1.21802 0.995733 0.0488876 0.0482758 0.000104413 0.0486412 8.55631e-07 272.991 
-0.27 -0.31 -1.541 1.45068 0.0488485 0.0483917 0.000124408 0.0486087 8.54891e-07 273.045 
-0.31 -0.29 -1.07783 0.968869 0.0488634 0.0483803 8.96223e-05 0.0486255 8.55093e-07 273.075 
-0.25 -0.31 -1.76853 0.857593 0.0488141 0.0484127 0.000176823 0.0486647 8.56024e-07 272.997 
-0.29 -0.29 -1.53995 1.22582 0.0488479 0.0482822 0.000104704 0.0485505 8.54165e-07 272.949 
-0.27 -0.29 -1.59748 1.53524 0.0488871 0.0483487 0.000159906 0.0485523 8.53484e-07 273.177 
-0.31 -0.27 -1.35568 1.17471 0.0487421 0.0483395 7.76944e-05 0.0486072 8.54495e-07 273.163 
-0.25 -0.29 -1.99501 1.26291 0.0488491 0.048395 0.000169426 0.0486114 8.54834e-07 273.078 
-0.29 -0.27 -1.38198 1.79187 0.0487669 0.048258 0.000149446 0.0485187 8.53093e-07 273.114 
-0.27 -0.27 -1.8633 1.68448 0.0487334 0.0482761 8.22656e-05 0.0485063 8.52614e-07 273.197 
-0.25 -0.27 -2.0369 1.51112 0.0488308 0.0483927 0.000185388 0.0486061 8.5501e-07 272.992 
-0.33 -0.45 -0.831876 0.264735 0.0488199 0.0485668 6.24222e-05 0.0486339 8.55034e-07 273.14 
-0.33 -0.41 -1.35496 0.144513 0.048738 0.0484644 8.20536e-05 0.0485751 8.54974e-07 272.83 
-0.33 -0.39 -1.01565 0.457 0.0487532 0.0484229 8.55114e-06 0.0485514 8.54187e-07 272.947 
-0.33 -0.33 -0.90503 0.865994 0.0488753 0.0484372 7.49374e-05 0.048661 8.54748e-07 273.384 
-0.25 -0.49 -0.84182 -0.0079169 0.0486449 0.0485403 9.50309e-05 0.0486652 8.55566e-07 273.146 
-0.25 -0.47 -0.622446 0.121253 0.0487352 0.0485192 7.0866e-05 0.0486425 8.55841e-07 272.931 
-0.25 -0.45 -1.39001 0.0232813 0.0487465 0.048507 8.80997e-05 0.0486572 8.54406e-07 273.472 
-0.25 -0.37 -1.31767 0.608794 0.0488416 0.0485437 0.000147333 0.0486973 8.56092e-07 273.158 
-0.25 -0.35 -1.58052 0.914043 0.0488165 0.0484647 0.000130322 0.0486059 8.54936e-07 273.015 
-0.25 -0.33 -1.66872 0.961448 0.0487224 0.0484706 7.18461e-05 0.0486394 8.55848e-07 272.911 
-0.49 -0.25 0.0458643 1.25037 0.0488033 0.0484939 -0.000161712 0.0486666 8.55855e-07 273.062 
-0.47 -0.25 -0.345204 0.989233 0.0487851 0.0484764 -7.87243e-05 0.0486144 8.56053e-07 272.706 
-0.45 -0.25 -0.524886 1.12693 0.0486602 0.0482911 -7.71456e-05 0.0485117 8.53873e-07 272.824 
-0.49 -0.23 0.090132 1.20933 0.0486267 0.0484548 -0.000164431 0.0485341 8.54611e-07 272.715 
-0.47 -0.23 -0.211058 1.49159 0.0486639 0.0483458 -0.000142495 0.0485074 8.54386e-07 272.636 
-0.45 -0.23 -0.60048 1.09303 0.0487503 0.0483721 -9.52093e-05 0.0485818 8.53585e-07 273.311 
-0.49 -0.21 -0.21754 1.29966 0.048801 0.0484305 -0.000196557 0.0486007 8.5663e-07 272.445 
-0.43 -0.23 -0.614429 1.3142 0.0487586 0.0484405 -0.000108795 0.0485573 8.54502e-07 272.88 
-0.47 -0.21 -0.0151663 1.54784 0.0488281 0.0482975 -0.000154038 0.0485837 8.55533e-07 272.699 
-0.41 -0.23 -0.537345 1.56847 0.0488305 0.0483589 -2.61741e-05 0.0485929 8.55187e-07 272.862 
-0.45 -0.21 -0.20964 1.43386 0.0488605 0.0483564 -0.000129102 0.0486347 8.54904e-07 273.186 
-0.49 -0.19 -0.181695 1.45349 0.0488986 0.0484282 -0.000149909 0.0486028 8.56737e-07 272.423 
-0.39 -0.23 -0.581837 1.648 0.048845 0.048325 -3.78159e-05 0.0486337 8.55216e-07 273.081 
-0.43 -0.21 -0.687712 1.53007 0.0488946 0.0484635 -8.79447e-05 0.048669 8.55095e-07 273.318 
-0.47 -0.19 -0.301219 1.52978 0.0488446 0.0482762 -0.000133922 0.048549 8.55556e-07 272.497 
-0.41 -0.21 -1.04603 1.68794 0.0488238 0.0483094 -7.21074e-05 0.0485793 8.54175e-07 273.108 
-0.45 -0.19 -0.416973 1.70156 0.0488707 0.0484009 -0.000133969 0.0486278 8.5578e-07 272.868 
-0.49 -0.17 0.1685 1.48252 0.0488348 0.0484541 -0.000186376 0.0486736 8.57172e-07 272.682 
-0.39 -0.21 -1.16245 2.01222 0.0488293 0.0482892 -4.32944e-05 0.0485582 8.55649e-07 272.52 
-0.43 -0.19 -0.513754 1.96788 0.0488376 0.0483361 -0.000115316 0.0486066 8.5526e-07 272.915 
-0.47 -0.17 -0.123161 2.00515 0.0488469 0.0482224 -0.0001425 0.0485365 8.54105e-07 272.89 
-0.41 -0.19 -0.83529 1.71986 0.0488588 0.0483561 -3.37031e-05 0.0486299 8.55292e-07 273.035 
-0.45 -0.17 -0.416907 1.81955 0.0488494 0.0483415 -0.000147399 0.0486072 8.54396e-07 273.194 
-0.49 -0.15 -0.0611519 1.39971 0.0487766 0.0483814 -0.00015906 0.0485668 8.55116e-07 272.738 
-0.39 -0.19 -1.18554 2.25186 0.048799 0.04821 -3.31034e-05 0.0485035 8.54266e-07 272.653 
-0.43 -0.17 -0.83936 2.13184 0.0488424 0.0483099 -7.30759e-05 0.0486275 8.55583e-07 272.929 
-0.47 -0.15 0.248643 1.97917 0.0488077 0.0482351 -0.000151417 0.0484631 8.54422e-07 272.376 
-0.41 -0.17 -0.870213 2.12296 0.0487879 0.048311 -3.91177e-05 0.0485675 8.53402e-07 273.289 
-0.45 -0.15 -0.166008 2.54561 0.0488199 0.0483403 -0.00013661 0.0485715 8.53321e-07 273.338 
-0.39 -0.17 -0.937296 2.28289 0.048791 0.0482224 -5.60738e-05 0.0484971 8.52998e-07 273.022 
-0.43 -0.15 -0.480021 2.22334 0.0487545 0.0481758 -2.02145e-05 0.0485227 8.54366e-07 272.729 
-0.41 -0.15 -0.763975 2.19112 0.0488233 0.0483077 -2.60293e-05 0.0485654 8.5397e-07 273.095 
-0.39 -0.15 -1.0196 2.67861 0.048758 0.0482405 -1.63481e-05 0.0485173 8.52718e-07 273.226 
-0.43 -0.25 -0.250956 1.4743 0.0487679 0.0485646 -2.91595e-05 0.0486489 8.55927e-07 272.939 
-0.41 -0.25 -0.294726 1.5225 0.0488039 0.0483138 -2.45723e-05 0.0485772 8.55087e-07 272.805 
-0.39 -0.25 -0.3777 1.63124 0.0488235 0.0483884 -5.09938e-05 0.0485837 8.55849e-07 272.599 
-0.33 -0.25 -1.01287 1.71428 0.0488135 0.048267 7.02794e-05 0.0485544 8.5454e-07 272.852 
-0.37 -0.25 -0.8051 1.63963 0.0487834 0.0483103 3.33301e-06 0.0485515 8.55756e-07 272.447 
-0.37 -0.23 -0.735154 2.33733 0.0488162 0.0483226 -6.5831e-06 0.0486539 8.56834e-07 272.679 
-0.35 -0.23 -0.89023 1.71598 0.0488077 0.0482656 1.75414e-05 0.0485649 8.55717e-07 272.535 
-0.37 -0.21 -1.36175 2.01626 0.0488186 0.0482661 1.8952e-06 0.0485876 8.55034e-07 272.88 
-0.35 -0.21 -1.03309 1.78863 0.0488715 0.0483059 2.10959e-06 0.0485867 8.54913e-07 272.914 
-0.33 -0.21 -1.20436 2.54029 0.048923 0.0483376 4.60383e-06 0.0486619 8.57009e-07 272.668 
-0.37 -0.19 -1.08591 2.0849 0.0489106 0.0482944 2.10717e-05 0.0486243 8.56013e-07 272.774 
-0.35 -0.19 -1.39327 1.86349 0.0488805 0.0482902 -5.27226e-05 0.0485903 8.5579e-07 272.655 
-0.33 -0.19 -1.45578 2.68237 0.0488001 0.0482384 5.48877e-05 0.0485686 8.556e-07 272.593 
-0.37 -0.17 -1.15587 2.23326 0.0487786 0.0482356 -5.32869e-05 0.0485227 8.54119e-07 272.808 
-0.35 -0.17 -1.4989 2.36622 0.0487696 0.0482621 5.06777e-05 0.048537 8.54608e-07 272.732 
-0.33 -0.17 -1.76014 2.74572 0.0487497 0.0481969 6.83648e-05 0.0484761 8.54331e-07 272.478 
-0.37 -0.15 -1.42335 2.54348 0.048756 0.0481904 7.75246e-06 0.0484301 8.50949e-07 273.301 
-0.35 -0.15 -1.59422 2.55611 0.048736 0.0482181 1.25275e-05 0.0485108 8.53549e-07 272.923 
-0.33 -0.15 -1.65439 2.57073 0.048765 0.0481848 2.79206e-05 0.0484914 8.54521e-07 272.504 
-0.37 -0.13 -1.17962 2.76765 0.0487442 0.0481902 3.14885e-05 0.0484527 8.52556e-07 272.914 
-0.35 -0.13 -1.57882 3.12142 0.048664 0.0481939 -3.13245e-06 0.0484433 8.52494e-07 272.881 
-0.33 -0.13 -1.99594 2.54351 0.0487315 0.0482122 1.17169e-05 0.0484294 8.53284e-07 272.55 
-0.37 -0.11 -1.05848 3.14203 0.0487936 0.0481617 1.50283e-05 0.0485118 8.52923e-07 273.129 
-0.35 -0.11 -1.54827 3.39896 0.0488201 0.048301 1.96901e-05 0.0485262 8.53283e-07 273.095 
-0.33 -0.11 -1.5125 2.71855 0.0487092 0.0480989 -1.83236e-05 0.048389 8.52537e-07 272.561 
-0.35 -0.09 -1.23167 3.61791 0.0487451 0.0482498 3.55321e-05 0.0484816 8.51675e-07 273.359 
-0.49 -0.13 0.018817 1.44855 0.0486588 0.0483419 -0.000191018 0.0485024 8.54537e-07 272.56 
-0.47 -0.13 -0.0872861 1.99763 0.0486484 0.0481905 -0.000203278 0.0483896 8.53347e-07 272.306 
-0.45 -0.13 0.0222231 2.82861 0.0487169 0.0482988 -0.000121923 0.048533 8.55303e-07 272.488 
-0.49 -0.11 -0.0735788 1.42209 0.0486733 0.0482858 -0.000212715 0.0484687 8.53279e-07 272.772 
-0.43 -0.13 -0.302582 2.62582 0.048736 0.0481438 -0.000100575 0.0484592 8.5308e-07 272.783 
-0.47 -0.11 -0.43115 2.27384 0.0486979 0.0482612 -0.000215809 0.0484858 8.53662e-07 272.746 
-0.41 -0.13 -0.966494 2.51584 0.0487847 0.0482801 -5.86294e-05 0.0485282 8.52984e-07 273.202 
-0.45 -0.11 -0.475443 2.64076 0.0487256 0.0481708 -0.000157168 0.0484846 8.52902e-07 272.983 
-0.49 -0.09 -0.320187 1.83047 0.0485325 0.0483348 -0.000197858 0.0484684 8.52973e-07 272.869 
-0.39 -0.13 -1.11906 2.62005 0.0487989 0.0482301 -1.63303e-05 0.0485392 8.53472e-07 273.107 
-0.43 -0.11 -0.347791 2.86498 0.0487457 0.0481306 -0.000118178 0.0484497 8.53091e-07 272.726 
-0.47 -0.09 -0.6096 2.58783 0.0485094 0.0482115 -0.000198695 0.0484273 8.53277e-07 272.54 
-0.41 -0.11 -0.406081 3.09102 0.0487077 0.0482283 -4.33354e-05 0.0484593 8.5274e-07 272.892 
-0.45 -0.09 -0.56287 2.48081 0.04849 0.0480806 -0.000216702 0.048277 8.50881e-07 272.46 
-0.39 -0.11 -0.819144 2.71384 0.0487034 0.0481623 -1.27779e-05 0.048478 8.52736e-07 272.999 
-0.43 -0.09 -0.765544 3.0262 0.0485569 0.0480709 -0.00012808 0.0483372 8.50558e-07 272.903 
-0.41 -0.09 -0.764279 3.21466 0.0486501 0.0481395 -0.000116475 0.0484325 8.52213e-07 272.91 
-0.39 -0.09 -0.70515 2.92905 0.0486919 0.0482241 -3.96196e-05 0.0484635 8.52922e-07 272.857 
-0.37 -0.09 -1.17192 3.44887 0.0486436 0.0480798 -6.37422e-05 0.0483779 8.50999e-07 272.991 
-0.35 -0.03 -1.92623 3.78719 0.0487043 0.0481388 -9.56618e-05 0.0484091 8.52383e-07 272.724 
-0.37 -0.07 -1.39606 3.46241 0.0486678 0.048046 -4.31025e-05 0.048409 8.51505e-07 273.004 
-0.41 -0.05 -1.11085 3.46454 0.0487133 0.0480543 -0.000114098 0.0483935 8.52e-07 272.758 
-0.45 -0.03 -0.696182 3.35755 0.0486444 0.0479796 -0.000215911 0.0483306 8.51621e-07 272.525 
-0.35 -0.07 -1.4499 3.73895 0.0486646 0.0481564 -3.5416e-05 0.048476 8.52724e-07 272.991 
-0.39 -0.05 -1.21976 3.42458 0.0487067 0.0481591 -0.000111663 0.0484205 8.52565e-07 272.729 
-0.43 -0.03 -0.765877 3.75374 0.0486568 0.0480076 -0.000212769 0.0483178 8.51016e-07 272.646 
-0.33 -0.07 -1.54534 3.63885 0.0487839 0.0481369 -1.90986e-05 0.0484858 8.52891e-07 272.993 
-0.37 -0.05 -1.64718 3.8642 0.0487418 0.0480437 -8.20832e-05 0.0483605 8.50696e-07 272.99 
-0.41 -0.03 -0.654421 3.68891 0.0487273 0.048042 -0.000170967 0.0483126 8.50274e-07 272.855 
-0.35 -0.05 -1.53366 3.47023 0.0487207 0.0481529 -0.000100469 0.0484603 8.52944e-07 272.832 
-0.39 -0.03 -1.36116 3.975 0.0487031 0.0481186 -0.000104151 0.0483835 8.50723e-07 273.111 
-0.33 -0.05 -1.81011 4.07914 0.0487013 0.0480867 -6.64613e-05 0.0483877 8.52343e-07 272.616 
-0.37 -0.03 -1.57582 3.93865 0.0487392 0.0480132 -6.65865e-05 0.0482972 8.50449e-07 272.712 
-0.33 -0.03 -2.05885 4.23926 0.0486534 0.048029 1.35718e-05 0.0484007 8.5091e-07 273.148 
-0.49 -0.07 0.0410193 2.28677 0.0486288 0.0483309 -0.000173595 0.0484909 8.52467e-07 273.157 
-0.47 -0.07 -0.0296974 2.50434 0.0486624 0.0482459 -0.000223137 0.048537 8.53591e-07 273.057 
-0.45 -0.07 -0.537909 2.7185 0.0486873 0.048044 -0.000179552 0.0483976 8.52441e-07 272.64 
-0.49 -0.05 -0.25284 2.23827 0.0485754 0.0482779 -0.000261246 0.0484096 8.51625e-07 272.969 
-0.43 -0.07 -0.811008 3.37436 0.0486116 0.0480564 -0.000150624 0.0483623 8.50574e-07 273.039 
-0.47 -0.05 -0.655597 2.74548 0.048643 0.0482948 -0.000258243 0.04846 8.52683e-07 272.914 
-0.41 -0.07 -1.03173 3.22886 0.0485987 0.0481274 -0.000135822 0.0483315 8.50836e-07 272.781 
-0.45 -0.05 -0.516025 3.05198 0.0486165 0.0479533 -0.000210837 0.0482893 8.49686e-07 272.912 
-0.49 -0.03 -0.0613038 2.63288 0.0486153 0.0482589 -0.000254775 0.0483899 8.50929e-07 273.081 
-0.39 -0.07 -1.40072 3.24874 0.0486396 0.0481412 -9.05987e-05 0.048393 8.53635e-07 272.233 
-0.43 -0.05 -0.647613 3.62334 0.0487296 0.0480952 -0.000174632 0.0484303 8.51647e-07 273.079 
-0.47 -0.03 -0.16794 2.73986 0.0486372 0.0482331 -0.000230576 0.0484077 8.52081e-07 272.813 
-0.27 -0.07 -2.55777 3.74744 0.0486623 0.0481099 7.64742e-05 0.0483377 8.53025e-07 272.116 
-0.31 -0.05 -2.04662 3.84474 0.0486807 0.0480845 4.80708e-05 0.0483972 8.51776e-07 272.851 
-0.27 -0.09 -2.40513 3.66549 0.0487847 0.0482007 2.34353e-05 0.0484902 8.54139e-07 272.619 
-0.31 -0.07 -2.11698 3.65981 0.0488301 0.048158 2.23307e-05 0.0485268 8.53492e-07 273.031 
-0.29 -0.07 -2.45468 3.68673 0.0488171 0.0481978 7.34796e-05 0.0484769 8.53235e-07 272.833 
-0.25 -0.07 -2.68634 3.09225 0.048702 0.0481821 9.71107e-05 0.0484177 8.52408e-07 272.764 
-0.29 -0.05 -1.99952 3.73024 0.0486374 0.0481407 8.70876e-05 0.0483308 8.51684e-07 272.506 
-0.27 -0.05 -2.26526 3.92284 0.048625 0.0481188 0.00012285 0.0483511 8.51952e-07 272.534 
-0.31 -0.03 -2.29894 3.99577 0.0486152 0.0480028 1.002e-05 0.0482866 8.50849e-07 272.524 
-0.25 -0.05 -2.2957 3.27768 0.0486267 0.048145 8.28447e-05 0.0483551 8.5186e-07 272.587 
-0.29 -0.03 -2.50488 4.07819 0.0486678 0.0480826 7.20977e-05 0.0483752 8.50866e-07 273.019 
-0.27 -0.03 -2.52402 3.74428 0.0486977 0.0481329 0.000117215 0.0484359 8.54207e-07 272.291 
-0.25 -0.03 -2.41156 3.46068 0.0486462 0.0481745 0.00012365 0.0484137 8.52748e-07 272.633 
-0.27 -0.01 -1.979 3.93296 0.0485985 0.048104 0.000103408 0.0484146 8.52318e-07 272.775 
-0.31 -0.25 -1.47202 1.52131 0.0489076 0.0483396 8.8304e-05 0.0485874 8.55174e-07 272.834 
-0.29 -0.25 -1.9518 1.91813 0.0489904 0.0482689 8.5208e-05 0.0486201 8.5495e-07 273.09 
-0.27 -0.25 -1.75025 1.79699 0.0489401 0.0482767 0.000128642 0.0486584 8.54536e-07 273.437 
-0.29 -0.11 -2.33309 3.02409 0.0487735 0.0482243 4.77854e-05 0.0485101 8.5563e-07 272.255 
-0.33 -0.09 -1.79357 3.04642 0.048784 0.0481367 8.85891e-05 0.0484284 8.51836e-07 273.007 
-0.27 -0.11 -2.49612 3.42153 0.0487924 0.0481932 5.84405e-05 0.0485078 8.53968e-07 272.773 
-0.31 -0.09 -2.01759 3.55054 0.048725 0.0481357 4.64305e-06 0.0484651 8.50336e-07 273.696 
-0.29 -0.09 -2.01951 3.38641 0.0487132 0.0481918 1.42811e-06 0.0484151 8.52031e-07 272.87 
-0.33 -0.23 -1.31676 1.80697 0.0488449 0.0482934 4.09402e-05 0.048648 8.5717e-07 272.539 
-0.31 -0.23 -1.61465 2.04686 0.0488846 0.048309 -9.79402e-06 0.0486174 8.56451e-07 272.596 
-0.29 -0.23 -1.66004 2.02931 0.048837 0.0482319 0.000111391 0.0486036 8.5631e-07 272.564 
-0.27 -0.23 -2.04003 1.66445 0.0488842 0.0482653 0.00012329 0.0486215 8.56334e-07 272.656 
-0.31 -0.21 -1.6421 2.28592 0.0487956 0.0481759 3.85574e-05 0.0484918 8.55235e-07 272.278 
-0.29 -0.21 -2.02364 2.15149 0.0488477 0.0482754 5.92112e-05 0.0486187 8.56661e-07 272.537 
-0.27 -0.21 -1.86139 2.02952 0.0488758 0.0482362 0.0001148 0.0485921 8.55194e-07 272.854 
-0.31 -0.19 -1.58259 2.44028 0.0488149 0.0482694 7.25976e-05 0.0485242 8.5412e-07 272.816 
-0.25 -0.21 -1.99706 1.69123 0.0489319 0.0482889 0.000103743 0.048642 8.55705e-07 272.972 
-0.29 -0.19 -1.5256 2.49852 0.04874 0.0482222 8.48905e-05 0.0484566 8.55278e-07 272.067 
-0.27 -0.19 -1.92466 1.91649 0.0486914 0.0481575 0.000115376 0.0484287 8.51554e-07 273.099 
-0.31 -0.17 -1.5123 2.22092 0.0487656 0.0482545 6.62885e-05 0.0485215 8.54104e-07 272.806 
-0.25 -0.19 -2.05899 2.21036 0.0487188 0.048293 9.1938e-05 0.0484601 8.53331e-07 272.707 
-0.29 -0.17 -1.55203 2.50584 0.0488211 0.0481783 6.69832e-05 0.0485311 8.54308e-07 272.795 
-0.27 -0.17 -2.11471 2.70424 0.0487637 0.0482186 8.72932e-05 0.0485267 8.53712e-07 272.96 
-0.31 -0.15 -1.83355 2.45476 0.0487739 0.0482486 4.17082e-05 0.048543 8.5546e-07 272.494 
-0.25 -0.17 -2.87504 2.45296 0.0487828 0.0483194 0.000100352 0.0485165 8.52419e-07 273.317 
-0.29 -0.15 -2.09991 2.86367 0.0487394 0.0481171 0.000143596 0.0484627 8.53831e-07 272.563 
-0.27 -0.15 -2.36186 3.0822 0.0487789 0.0483052 7.46189e-05 0.0485473 8.54845e-07 272.714 
-0.31 -0.13 -2.20334 2.77761 0.0487128 0.0481594 9.85893e-05 0.0484687 8.53435e-07 272.723 
-0.25 -0.15 -2.48236 2.69067 0.0488265 0.0482842 7.60743e-05 0.0485328 8.54141e-07 272.857 
-0.29 -0.13 -2.36778 3.10681 0.0488038 0.0481917 4.00181e-05 0.0485428 8.5496e-07 272.652 
-0.27 -0.13 -2.57085 3.16315 0.04878 0.0482639 6.41207e-05 0.0485829 8.55063e-07 272.845 
-0.31 -0.11 -1.78877 3.49812 0.0487871 0.0481809 4.00825e-05 0.0484917 8.52419e-07 273.177 
-0.25 -0.13 -2.61671 2.79811 0.048769 0.0482226 0.000100637 0.0484826 8.53174e-07 272.885 
-0.25 -0.25 -1.69685 1.65721 0.0489494 0.0483183 0.000133415 0.0486961 8.56795e-07 272.928 
-0.25 -0.23 -2.23818 2.02651 0.0488617 0.0482984 0.000102111 0.0486057 8.5571e-07 272.766 
-0.25 -0.11 -2.55014 2.7985 0.0488203 0.0482314 4.73697e-05 0.0485204 8.5302e-07 273.146 
-0.25 -0.09 -2.58794 2.9368 0.0487132 0.0482126 0.000124723 0.0484943 8.52133e-07 273.284 
-0.25 -0.01 -2.50101 3.71635 0.048615 0.04816 0.000133588 0.0484121 8.53139e-07 272.499 
-0.23 -0.49 -0.881211 0.0270736 0.0486369 0.0485361 0.000108354 0.0485829 8.54804e-07 272.927 
-0.21 -0.49 -0.753769 -0.216221 0.0486326 0.0484779 0.00011041 0.048549 8.53475e-07 273.162 
-0.19 -0.49 -0.873517 -0.0118875 0.048573 0.0485542 0.00019693 0.0485445 8.53538e-07 273.116 
-0.23 -0.47 -0.853903 -0.104157 0.0487111 0.048494 0.000100219 0.0486554 8.55805e-07 273.015 
-0.17 -0.49 -0.846789 0.241135 0.0485848 0.0485687 0.000138285 0.0485921 8.54705e-07 273.011 
-0.21 -0.47 -1.25556 0.186397 0.0486725 0.0484506 0.000142677 0.0485686 8.53793e-07 273.17 
-0.15 -0.49 -0.871133 0.0177066 0.0486039 0.0485682 0.000209647 0.0485779 8.55865e-07 272.561 