ITEM: TIMESTEP
992500
ITEM: NUMBER OF CELLS
2500
ITEM: BOX BOUNDS ss ss pp
-0.5 0.5
-0.5 0.5
-0.5 0.5
ITEM: CELLS xc yc f_U[*] f_V[*] f_Tau[1] f_Tau[2] f_Tau[3] f_Press[*] f_Mrho[*] f_Ttra[*] 
-0.49 -0.49 -0.0246241 -0.0115413 0.0487088 0.0485763 -4.49474e-05 0.0486943 8.5597e-07 273.181 
-0.47 -0.49 0.00632369 0.017727 0.0486657 0.0485857 7.8661e-06 0.0486283 8.55157e-07 273.07 
-0.45 -0.49 -0.0683183 0.0251281 0.0486663 0.0485738 4.47612e-05 0.048618 8.5602e-07 272.737 
-0.49 -0.47 0.0392855 -0.103541 0.0486797 0.0485698 -1.65224e-06 0.0486222 8.54651e-07 273.197 
-0.43 -0.49 -0.153938 0.0733703 0.0486488 0.0485376 -1.97326e-06 0.0485769 8.55165e-07 272.779 
-0.47 -0.47 0.0524636 0.0578933 0.0486942 0.0485756 -1.07257e-05 0.0486506 8.54639e-07 273.361 
-0.41 -0.49 -0.284763 0.0291785 0.048675 0.0485383 4.59306e-05 0.04861 8.55066e-07 272.996 
-0.45 -0.47 -0.00737178 0.204815 0.0486987 0.0485601 2.57527e-05 0.0486205 8.55194e-07 273.014 
-0.49 -0.45 -0.0351128 -0.0820348 0.0487094 0.0485874 -2.31248e-05 0.0486491 8.55222e-07 273.166 
-0.39 -0.49 -0.295211 0.00225485 0.0486834 0.0484733 5.69084e-06 0.0485746 8.54438e-07 272.998 
-0.43 -0.47 -0.0535433 0.0321986 0.0486964 0.0485468 2.14145e-05 0.0486262 8.54952e-07 273.124 
-0.47 -0.45 -0.119773 0.145561 0.0486904 0.0485415 1.37146e-05 0.0486215 8.55062e-07 273.062 
-0.37 -0.49 -0.380502 0.0431971 0.0487062 0.0485265 2.26876e-05 0.0486139 8.55729e-07 272.806 
-0.41 -0.47 -0.207828 0.309401 0.0486867 0.0485054 3.42772e-05 0.0486126 8.55518e-07 272.866 
-0.45 -0.45 -0.193298 0.125223 0.0487302 0.0485594 -6.34678e-07 0.0486523 8.56134e-07 272.893 
-0.49 -0.43 -0.0911371 0.0380251 0.0486987 0.0485548 -1.67733e-05 0.0486364 8.5628e-07 272.757 
-0.35 -0.49 -0.43267 0.0498409 0.0486958 0.0485309 7.28e-05 0.0485928 8.55133e-07 272.878 
-0.39 -0.47 -0.47226 0.172331 0.048697 0.0485012 2.80123e-05 0.0486106 8.55234e-07 272.946 
-0.43 -0.45 -0.329639 0.315268 0.0487691 0.0485495 2.93444e-05 0.0486332 8.54639e-07 273.263 
-0.47 -0.43 -0.187142 0.143632 0.0487276 0.0485454 -1.77054e-05 0.0486645 8.56424e-07 272.869 
-0.37 -0.47 -0.548167 0.0601832 0.048644 0.0484574 2.808e-05 0.0485398 8.53795e-07 273.008 
-0.41 -0.45 -0.288958 0.328621 0.0487203 0.0484822 2.30505e-05 0.0486024 8.5481e-07 273.035 
-0.45 -0.43 -0.3149 0.36463 0.0487387 0.0485801 -2.58606e-05 0.0486536 8.56003e-07 272.942 
-0.49 -0.41 -0.0470607 0.304536 0.0487526 0.048527 -9.10663e-06 0.0486104 8.55815e-07 272.759 
-0.35 -0.47 -0.690554 0.0579346 0.048702 0.0485104 8.39984e-05 0.0486126 8.55181e-07 272.974 
-0.39 -0.45 -0.374511 0.264735 0.0487349 0.0484866 5.65551e-05 0.0486046 8.55213e-07 272.919 
-0.43 -0.43 -0.343991 0.356569 0.0487607 0.0484818 1.80934e-05 0.0486292 8.5549e-07 272.969 
-0.47 -0.41 -0.3772 0.277745 0.0487725 0.0485995 -4.53458e-05 0.0487047 8.57107e-07 272.877 
-0.37 -0.45 -0.616379 0.317344 0.0486982 0.0485075 4.9959e-05 0.0485941 8.54891e-07 272.962 
-0.41 -0.43 -0.491533 0.319749 0.0488064 0.0485104 3.28298e-05 0.0486528 8.55786e-07 273.007 
-0.45 -0.41 -0.395045 0.325163 0.048783 0.0485269 -1.39741e-05 0.0486714 8.56337e-07 272.935 
-0.49 -0.39 -0.0500858 0.361802 0.0487688 0.0485455 -1.59302e-05 0.0486398 8.56498e-07 272.707 
-0.35 -0.45 -0.73587 0.11244 0.0486599 0.0484347 4.65107e-05 0.0485214 8.54647e-07 272.632 
-0.39 -0.43 -0.469859 0.391498 0.0487749 0.0484286 3.27773e-05 0.0485809 8.54447e-07 273.03 
-0.43 -0.41 -0.489947 0.459978 0.048745 0.0485192 -1.7556e-06 0.0486334 8.55285e-07 273.057 
-0.47 -0.39 -0.0166298 0.424572 0.0487692 0.0486022 -5.39352e-05 0.048669 8.5692e-07 272.736 
-0.37 -0.43 -0.594717 0.433327 0.0488181 0.0484995 8.09949e-05 0.0486373 8.55878e-07 272.89 
-0.41 -0.41 -0.525692 0.330582 0.0487194 0.0484498 2.42993e-05 0.0485517 8.54175e-07 272.953 
-0.45 -0.39 -0.115428 0.505878 0.0487443 0.0484466 -1.12598e-05 0.0486093 8.55678e-07 272.797 
-0.35 -0.43 -0.67556 0.184188 0.0488331 0.0485005 2.83363e-05 0.0486402 8.56724e-07 272.637 
-0.39 -0.41 -0.423024 0.33949 0.0487574 0.0484488 2.43681e-05 0.0485785 8.55199e-07 272.777 
-0.43 -0.39 -0.252223 0.470584 0.0487837 0.048546 1.99301e-05 0.04867 8.56141e-07 272.99 
-0.37 -0.41 -0.377953 0.5832 0.0487747 0.0484692 4.00957e-05 0.0485966 8.55198e-07 272.878 
-0.41 -0.39 -0.31111 0.462869 0.0487438 0.0484299 3.07181e-06 0.0485963 8.55044e-07 272.926 
-0.35 -0.41 -0.733824 0.432059 0.0487622 0.0485092 3.42277e-05 0.0485877 8.5559e-07 272.704 
-0.39 -0.39 -0.586995 0.330619 0.0487783 0.0484571 1.71515e-05 0.0486213 8.55882e-07 272.799 
-0.37 -0.39 -0.662434 0.592971 0.0487928 0.0484471 2.72641e-05 0.0486048 8.54855e-07 273.034 
-0.35 -0.39 -0.628457 0.71645 0.0488133 0.0485175 7.89956e-05 0.0486374 8.55815e-07 272.911 
-0.37 -0.37 -0.839614 0.558386 0.0488247 0.0484403 1.0484e-05 0.0486204 8.54932e-07 273.097 
-0.33 -0.49 -0.587698 0.0332998 0.0486625 0.0484749 9.74578e-05 0.0485855 8.54822e-07 272.936 
-0.33 -0.47 -0.589271 0.182633 0.0486746 0.0484917 9.23979e-05 0.0485873 8.54926e-07 272.913 
-0.33 -0.43 -0.71892 0.0651779 0.0487747 0.048481 4.38463e-05 0.0485904 8.55728e-07 272.675 
-0.49 -0.37 -0.0221064 0.328321 0.0487639 0.0485799 -4.76515e-05 0.0486643 8.56135e-07 272.96 
-0.47 -0.37 -0.0857517 0.547206 0.0487931 0.04857 -3.34803e-05 0.0486891 8.56424e-07 273.007 
-0.45 -0.37 -0.353137 0.588521 0.0487732 0.048469 -1.42351e-05 0.048632 8.55181e-07 273.083 
-0.49 -0.35 0.00429122 0.481832 0.0488419 0.0486026 -4.97101e-05 0.0487042 8.57052e-07 272.891 
-0.43 -0.37 -0.53269 0.648515 0.0487853 0.0484923 -2.72505e-06 0.0486459 8.5495e-07 273.235 
-0.47 -0.35 -0.157467 0.679285 0.0488318 0.0485336 -1.2519e-05 0.0486991 8.5624e-07 273.121 
-0.45 -0.35 -0.240941 0.754806 0.0488 0.0484522 8.77512e-06 0.048671 8.55384e-07 273.237 
-0.49 -0.33 -0.0895163 0.492797 0.0487872 0.0485179 -4.3805e-05 0.0486713 8.56676e-07 272.826 
-0.39 -0.37 -0.746687 0.525388 0.0487845 0.0484046 -5.2546e-06 0.0485775 8.55381e-07 272.713 
-0.43 -0.35 -0.146836 0.543933 0.0488031 0.048486 -4.64942e-05 0.0486557 8.55576e-07 273.09 
-0.47 -0.33 -0.0576418 0.731042 0.0488247 0.0485222 -1.56176e-05 0.0486482 8.55818e-07 272.97 
-0.41 -0.35 -0.446984 0.823679 0.0487875 0.0484508 3.646e-05 0.0486114 8.55339e-07 272.917 
-0.45 -0.33 -0.102834 0.805625 0.0488378 0.0484596 -3.03396e-05 0.0486292 8.55369e-07 273.007 
-0.49 -0.31 -0.0739082 0.602806 0.0487249 0.048488 -8.77236e-05 0.0485858 8.54925e-07 272.905 
-0.39 -0.35 -0.649986 0.760701 0.0488238 0.0484488 -6.78751e-06 0.048607 8.55001e-07 273 
-0.43 -0.33 -0.390597 0.791386 0.0488534 0.0484734 1.96383e-05 0.048642 8.55e-07 273.197 
-0.47 -0.31 -0.188132 0.841894 0.0487466 0.0484827 -5.42924e-05 0.0485938 8.55008e-07 272.924 
-0.37 -0.35 -0.946793 0.786129 0.0487539 0.0483845 3.67457e-05 0.0485637 8.54809e-07 272.818 
-0.41 -0.33 -0.511498 0.893419 0.0488376 0.048459 -8.42034e-06 0.0486397 8.55381e-07 273.062 
-0.45 -0.31 -0.167894 0.829555 0.0488111 0.0484798 -5.54104e-05 0.0486287 8.55482e-07 272.968 
-0.49 -0.29 -0.0713657 0.822519 0.0487575 0.048475 -9.28924e-05 0.0486079 8.55638e-07 272.802 
-0.35 -0.35 -1.08976 0.82648 0.0487414 0.0483922 4.84432e-05 0.0485871 8.54747e-07 272.969 
-0.39 -0.33 -0.630838 1.06593 0.0488116 0.0484203 3.65868e-05 0.0485924 8.55308e-07 272.82 
-0.43 -0.31 -0.277762 1.01353 0.0488039 0.0484398 -4.65173e-05 0.048616 8.55626e-07 272.851 
-0.47 -0.29 -0.182395 0.811032 0.0487647 0.0484808 -8.52444e-05 0.0486332 8.5603e-07 272.819 
-0.37 -0.33 -0.721405 1.06891 0.0488212 0.0483881 4.86959e-05 0.0485951 8.54667e-07 273.04 
-0.41 -0.31 -0.627227 1.00134 0.0488521 0.0484116 2.89796e-05 0.0486451 8.56111e-07 272.859 
-0.45 -0.29 -0.232696 0.900654 0.0487755 0.0484545 -5.78011e-05 0.0486126 8.55331e-07 272.926 
-0.49 -0.27 -0.124611 0.949889 0.0488283 0.0484648 -7.60615e-05 0.0486604 8.56409e-07 272.851 
-0.35 -0.33 -0.918746 0.794117 0.0488375 0.0484119 1.31093e-05 0.0486417 8.55424e-07 273.06 
-0.39 -0.31 -0.584042 1.11227 0.0488674 0.0484318 3.9481e-05 0.048656 8.55755e-07 273.034 
-0.43 -0.29 -0.373051 1.20216 0.0487805 0.0483876 -4.7552e-05 0.0485697 8.55413e-07 272.659 
-0.47 -0.27 -0.175374 0.893143 0.0488405 0.0484637 -8.11785e-05 0.0486769 8.56463e-07 272.926 
-0.37 -0.31 -0.654134 1.10632 0.0488676 0.0484029 1.29047e-05 0.0486382 8.55328e-07 273.071 
-0.41 -0.29 -0.311852 1.09405 0.048824 0.0483405 -2.72635e-05 0.0485803 8.54715e-07 272.941 
-0.45 -0.27 -0.285877 1.05867 0.0488372 0.0484071 -6.6829e-05 0.0486038 8.5619e-07 272.603 
-0.35 -0.31 -0.855686 1.16936 0.0488569 0.0484017 6.75643e-05 0.0486335 8.5536e-07 273.034 
-0.39 -0.29 -0.566331 1.28732 0.0488446 0.0484392 2.00717e-05 0.0486205 8.54862e-07 273.12 
-0.43 -0.27 -0.47139 1.25183 0.0488309 0.048395 -2.13828e-05 0.0486074 8.55515e-07 272.838 
-0.37 -0.29 -0.76342 1.06367 0.0488347 0.0483963 4.54313e-05 0.0486359 8.54731e-07 273.249 
-0.41 -0.27 -0.592073 1.27145 0.0487957 0.0483359 -3.44967e-05 0.048531 8.54871e-07 272.615 
-0.35 -0.29 -0.969232 1.46588 0.0488453 0.0483842 6.21875e-05 0.0486012 8.54962e-07 272.98 
-0.39 -0.27 -0.886022 1.48726 0.048789 0.0483865 -2.25447e-06 0.0486019 8.54991e-07 272.974 
-0.33 -0.29 -1.08889 1.34692 0.0488722 0.048402 4.16373e-05 0.0486294 8.5502e-07 273.12 
-0.37 -0.27 -1.09768 1.34606 0.0488404 0.0483779 1.72909e-05 0.0486202 8.551e-07 273.043 
-0.35 -0.27 -1.17897 1.52725 0.0488589 0.048389 2.99507e-05 0.0486123 8.56134e-07 272.668 
-0.33 -0.27 -1.31538 1.44611 0.0488507 0.0483618 7.88976e-05 0.0485736 8.54801e-07 272.876 
-0.41 -0.37 -0.556737 0.619857 0.0488411 0.0484776 1.13963e-05 0.0486576 8.56098e-07 272.934 
-0.35 -0.37 -0.860573 0.886349 0.0488277 0.0484547 5.3162e-05 0.048624 8.55585e-07 272.909 
-0.33 -0.37 -0.864277 0.538572 0.0488036 0.0484538 6.36447e-05 0.0486176 8.5516e-07 273.009 
-0.33 -0.35 -1.22692 0.793274 0.0487979 0.0484438 8.92548e-05 0.0486374 8.5563e-07 272.97 
-0.33 -0.31 -1.22324 0.976632 0.0488335 0.0483721 6.45673e-05 0.0486022 8.55078e-07 272.948 
-0.35 -0.25 -1.25986 1.61024 0.0487994 0.0483447 3.70123e-05 0.0485864 8.55252e-07 272.805 
-0.31 -0.49 -0.580811 0.0157659 0.0486788 0.0485384 8.69419e-05 0.0486339 8.55125e-07 273.111 
-0.29 -0.49 -0.63167 0.0499032 0.0486767 0.0484974 8.91145e-05 0.048605 8.54717e-07 273.079 
-0.27 -0.49 -0.745358 -0.0256084 0.0486639 0.0484631 0.000122545 0.04856 8.54898e-07 272.769 
-0.31 -0.47 -0.743874 -0.0215152 0.0486998 0.0485334 9.03853e-05 0.0486272 8.5446e-07 273.286 
-0.29 -0.47 -0.684007 0.0626864 0.0487006 0.048445 0.000123112 0.0485915 8.54608e-07 273.038 
-0.27 -0.47 -0.60272 0.0116151 0.048705 0.0484674 0.000102433 0.0485608 8.54441e-07 272.919 
-0.31 -0.45 -0.575353 0.181301 0.0487535 0.0484948 7.79781e-05 0.0486139 8.55399e-07 272.911 
-0.29 -0.45 -0.709475 0.0573138 0.048741 0.0484535 0.000123369 0.0486033 8.54704e-07 273.074 
-0.27 -0.45 -1.02889 0.289565 0.0487408 0.0484746 0.000120743 0.0485849 8.54939e-07 272.896 
-0.31 -0.43 -1.02103 0.216583 0.0487626 0.048432 8.73235e-05 0.0485948 8.55592e-07 272.743 
-0.29 -0.43 -1.22494 0.292867 0.048788 0.0484462 0.000104178 0.0486179 8.55465e-07 272.913 
-0.27 -0.43 -1.20224 0.413312 0.0488031 0.0484789 0.000120145 0.0486248 8.54894e-07 273.134 
-0.31 -0.41 -1.13279 0.414398 0.0487946 0.0484049 0.000104285 0.0486037 8.54994e-07 272.983 
-0.25 -0.43 -1.22623 0.245295 0.0487643 0.0484814 0.000129403 0.0486236 8.53964e-07 273.425 
-0.29 -0.41 -1.21155 0.362772 0.0487848 0.0484513 9.14301e-05 0.0486305 8.55427e-07 272.996 
-0.27 -0.41 -1.30652 0.323543 0.0487692 0.0484587 0.000132263 0.0486075 8.55539e-07 272.831 
-0.31 -0.39 -1.00116 0.532198 0.0487861 0.0483818 8.22165e-05 0.0485743 8.54278e-07 273.047 
-0.25 -0.41 -1.33272 0.320651 0.048778 0.0484909 0.000118876 0.0486466 8.55318e-07 273.121 
-0.29 -0.39 -1.07814 0.347324 0.0488238 0.0484017 0.000103675 0.0486148 8.55513e-07 272.88 
-0.27 -0.39 -1.27121 0.663425 0.0488517 0.0484682 0.0001422 0.0487003 8.56445e-07 273.063 
-0.31 -0.37 -1.11751 0.661194 0.0487786 0.0483708 7.86132e-05 0.0485828 8.54754e-07 272.943 
-0.25 -0.39 -1.55088 0.527491 0.0488369 0.0485085 0.000147025 0.0486887 8.56039e-07 273.127 
-0.29 -0.37 -1.31807 0.615693 0.0487822 0.0483741 8.33599e-05 0.048582 8.55657e-07 272.65 
-0.27 -0.37 -1.4586 0.714879 0.0488301 0.0484132 8.7659e-05 0.0486336 8.55428e-07 273.013 
-0.31 -0.35 -1.29845 0.694926 0.0488325 0.0484058 5.56273e-05 0.0486334 8.55541e-07 272.976 
-0.29 -0.35 -1.28238 0.806698 0.0488366 0.0483503 6.49484e-05 0.0486225 8.55595e-07 272.897 
-0.27 -0.35 -1.49315 0.935718 0.0488387 0.0484176 7.96776e-05 0.0486172 8.55499e-07 272.898 
-0.31 -0.33 -1.10423 0.886494 0.0488351 0.0483991 5.8561e-05 0.0486117 8.55504e-07 272.866 
-0.29 -0.33 -1.55586 1.04707 0.0488193 0.0483371 6.94172e-05 0.0485826 8.55108e-07 272.829 
-0.27 -0.33 -1.60925 0.936231 0.048813 0.0483989 0.000107879 0.0485846 8.55128e-07 272.834 
-0.31 -0.31 -1.32918 0.999579 0.0488352 0.0483793 7.11514e-05 0.0486109 8.54903e-07 273.053 
-0.29 -0.31 -1.42186 1.29268 0.0488362 0.048352 8.07993e-05 0.0486157 8.54996e-07 273.051 
-0.27 -0.31 -1.72664 1.14402 0.0488131 0.0483572 8.78317e-05 0.0485745 8.54265e-07 273.052 
-0.31 -0.29 -1.42521 1.2318 0.048825 0.0483246 5.7133e-05 0.0485691 8.54149e-07 273.059 
-0.25 -0.31 -1.86361 1.16975 0.0488102 0.0484321 0.000126235 0.0486392 8.54839e-07 273.232 
-0.29 -0.29 -1.74631 1.35686 0.0488228 0.0483534 7.91917e-05 0.0485937 8.54072e-07 273.222 
-0.27 -0.29 -1.76141 1.28653 0.0488631 0.0483453 0.000115106 0.0485831 8.54204e-07 273.12 
-0.31 -0.27 -1.51122 1.54899 0.0488413 0.0483567 8.17997e-05 0.048615 8.55227e-07 272.972 
-0.25 -0.29 -1.96948 1.30077 0.0488778 0.0484187 0.000104239 0.0486386 8.55143e-07 273.132 
-0.29 -0.27 -1.5771 1.58081 0.0488036 0.0483125 0.000118362 0.0485603 8.54112e-07 273.021 
-0.27 -0.27 -1.89413 1.55729 0.0487687 0.0483236 7.71279e-05 0.0485535 8.53369e-07 273.221 
-0.25 -0.27 -2.12539 1.45206 0.0487794 0.0483535 0.000125678 0.04858 8.54671e-07 272.954 
-0.33 -0.45 -0.725165 0.0205507 0.0487536 0.0485187 4.51745e-05 0.0486088 8.55763e-07 272.767 
-0.33 -0.41 -1.10638 0.284262 0.0488185 0.0484589 7.14392e-05 0.0485879 8.55556e-07 272.716 
-0.33 -0.39 -0.850004 0.469536 0.048772 0.0484197 6.13543e-05 0.0485735 8.54827e-07 272.867 
-0.33 -0.33 -0.944873 0.870238 0.0488217 0.0483989 3.23633e-05 0.0485972 8.54583e-07 273.078 
-0.25 -0.49 -0.725777 0.0158955 0.0486066 0.0484587 0.000112819 0.0485675 8.55224e-07 272.707 
-0.25 -0.47 -0.800213 0.168049 0.0487377 0.0484908 8.43643e-05 0.048608 8.55449e-07 272.862 
-0.25 -0.45 -1.14625 0.130938 0.0487251 0.048479 8.54637e-05 0.0485956 8.54762e-07 273.012 
-0.25 -0.37 -1.62292 0.737971 0.0488646 0.0485217 0.000127744 0.0486862 8.55874e-07 273.166 
-0.25 -0.35 -1.71904 0.863067 0.0488302 0.0484523 0.000117277 0.0486424 8.55833e-07 272.933 
-0.25 -0.33 -1.67533 1.10938 0.0487781 0.0484484 9.61041e-05 0.0486315 8.55205e-07 273.072 
-0.49 -0.25 -0.00392002 1.1639 0.0487692 0.0484491 -0.000119644 0.0486559 8.5578e-07 273.026 
-0.47 -0.25 -0.32446 1.00225 0.0488174 0.0484251 -8.06603e-05 0.0486171 8.55473e-07 272.906 
-0.45 -0.25 -0.440323 1.16065 0.0487818 0.0484008 -4.80396e-05 0.0486272 8.55918e-07 272.821 
-0.49 -0.23 -0.0487435 1.22231 0.0486977 0.0484372 -0.000151085 0.0485705 8.54798e-07 272.86 
-0.47 -0.23 -0.117493 1.26451 0.0487232 0.0483789 -0.000112687 0.048538 8.54473e-07 272.781 
-0.45 -0.23 -0.53924 1.29231 0.0487587 0.048369 -8.6472e-05 0.0486063 8.54915e-07 273.024 
-0.49 -0.21 -0.103868 1.33486 0.0487357 0.0484419 -0.000171662 0.0485912 8.5517e-07 272.857 
-0.43 -0.23 -0.530403 1.38685 0.0488026 0.0483801 -6.16873e-05 0.0486124 8.54604e-07 273.157 
-0.47 -0.21 -0.304616 1.44728 0.0487711 0.0483237 -0.000159661 0.0485627 8.54267e-07 272.986 
-0.41 -0.23 -0.755229 1.76467 0.0488131 0.048305 -2.76803e-05 0.0485637 8.54364e-07 272.96 
-0.45 -0.21 -0.295159 1.42984 0.048804 0.0483477 -8.3829e-05 0.0486076 8.54706e-07 273.098 
-0.49 -0.19 -0.0373614 1.45376 0.0488167 0.0484205 -0.000154804 0.0486176 8.55411e-07 272.928 
-0.39 -0.23 -0.764683 1.84544 0.0488197 0.0483391 4.68879e-06 0.048595 8.54266e-07 273.167 
-0.43 -0.21 -0.665763 1.61308 0.0488101 0.048348 -5.4952e-05 0.0486099 8.54681e-07 273.118 
-0.47 -0.19 -0.0804557 1.59649 0.0487715 0.0482913 -0.000122659 0.0485617 8.54475e-07 272.913 
-0.41 -0.21 -0.820676 1.85586 0.0488234 0.0482728 -3.28465e-05 0.0485863 8.5428e-07 273.114 
-0.45 -0.19 -0.408265 1.74329 0.0487708 0.0483082 -9.20154e-05 0.0485686 8.53628e-07 273.223 
-0.49 -0.17 0.075453 1.35473 0.0487501 0.0484012 -0.000160387 0.0485858 8.55395e-07 272.755 
-0.39 -0.21 -0.986134 2.04903 0.0488419 0.0483388 -2.97794e-05 0.0486093 8.54972e-07 273.022 
-0.43 -0.19 -0.648625 1.86553 0.0487938 0.0483232 -8.97397e-05 0.0485937 8.54557e-07 273.067 
-0.47 -0.17 -0.173141 2.03232 0.0487645 0.0482469 -0.000126137 0.0485099 8.5337e-07 272.975 
-0.41 -0.19 -0.814752 1.97198 0.0488072 0.0482752 -5.59409e-05 0.0485584 8.54152e-07 272.998 
-0.45 -0.17 -0.321064 1.90615 0.048805 0.0482991 -0.000141539 0.0485839 8.54146e-07 273.143 
-0.49 -0.15 -0.0590055 1.41589 0.0486845 0.0483151 -0.000172373 0.0485055 8.53678e-07 272.852 
-0.39 -0.19 -0.928455 2.13928 0.0488143 0.0482938 -4.76479e-05 0.0485528 8.54161e-07 272.964 
-0.43 -0.17 -0.508594 2.05746 0.0488025 0.0482768 -9.23586e-05 0.0485847 8.54416e-07 273.061 
-0.47 -0.15 0.172451 1.93103 0.0487318 0.0482636 -0.000159639 0.0484844 8.53252e-07 272.87 
-0.41 -0.17 -0.612027 2.12846 0.0487787 0.0482636 -5.83025e-05 0.0485425 8.53226e-07 273.205 
-0.45 -0.15 -0.0689646 2.2455 0.0487444 0.0482745 -0.000143062 0.0485268 8.53425e-07 273.053 
-0.39 -0.17 -0.802298 2.25243 0.0487782 0.0482643 -5.13542e-05 0.0485149 8.53517e-07 272.956 
-0.43 -0.15 -0.307289 2.16471 0.0487478 0.0481905 -6.88024e-05 0.0484876 8.53101e-07 272.936 
-0.41 -0.15 -0.507181 2.3371 0.0487774 0.0482701 -6.1327e-05 0.0485351 8.53485e-07 273.08 
-0.39 -0.15 -0.819494 2.66656 0.048775 0.0482684 -5.67382e-05 0.0485217 8.54372e-07 272.721 
-0.43 -0.25 -0.404852 1.40424 0.0487785 0.0484005 -2.32924e-05 0.0485863 8.55303e-07 272.787 
-0.41 -0.25 -0.495902 1.51317 0.0488025 0.0482919 -2.16944e-05 0.0485631 8.54818e-07 272.812 
-0.39 -0.25 -0.855857 1.70231 0.0488254 0.0483969 -2.16652e-05 0.0486069 8.55455e-07 272.854 
-0.33 -0.25 -1.40483 1.73099 0.0487891 0.0483292 6.01966e-05 0.0485734 8.54733e-07 272.897 
-0.37 -0.25 -1.11789 1.46952 0.0487998 0.0483487 1.20338e-05 0.0485861 8.55303e-07 272.786 
-0.37 -0.23 -1.04905 1.88447 0.0488571 0.0483731 4.4035e-06 0.0486569 8.56048e-07 272.946 
-0.35 -0.23 -1.27444 1.86142 0.0488426 0.0482918 2.05067e-05 0.0485991 8.55352e-07 272.844 
-0.37 -0.21 -1.05253 2.06818 0.048821 0.0482981 6.51109e-06 0.0485895 8.54837e-07 272.954 
-0.35 -0.21 -1.23099 2.0503 0.0488358 0.0483048 3.16369e-05 0.0485826 8.54981e-07 272.869 
-0.33 -0.21 -1.42577 2.04112 0.0488409 0.0482767 4.03658e-05 0.0485714 8.55282e-07 272.71 
-0.37 -0.19 -1.02974 2.17382 0.0488424 0.0482868 -1.1773e-05 0.0485627 8.54613e-07 272.875 
-0.35 -0.19 -1.13266 2.14851 0.0488503 0.048289 2.13999e-05 0.0485584 8.5522e-07 272.657 
-0.33 -0.19 -1.31714 2.2961 0.0488392 0.0482289 4.263e-05 0.048539 8.54739e-07 272.702 
-0.37 -0.17 -0.949052 2.38285 0.0488093 0.0482528 -3.80094e-05 0.0485511 8.53851e-07 273.053 
-0.35 -0.17 -1.27941 2.46959 0.0487981 0.0482378 3.22843e-05 0.0485407 8.54242e-07 272.87 
-0.33 -0.17 -1.46714 2.41474 0.0488116 0.0482211 4.3819e-05 0.0485094 8.54379e-07 272.65 
-0.37 -0.15 -1.24397 2.53255 0.0487584 0.0481988 -4.84064e-06 0.048454 8.52537e-07 272.927 
-0.35 -0.15 -1.31354 2.57925 0.048762 0.0481947 -9.61233e-06 0.0484774 8.54149e-07 272.544 
-0.33 -0.15 -1.48601 2.59644 0.0487976 0.0482358 1.31059e-05 0.0485016 8.5448e-07 272.574 
-0.37 -0.13 -1.118 2.6368 0.0487935 0.0481896 -1.28127e-05 0.0484967 8.53531e-07 272.85 
-0.35 -0.13 -1.32149 2.91928 0.0487523 0.0481777 -5.01483e-06 0.0484584 8.53903e-07 272.515 
-0.33 -0.13 -1.56396 2.70887 0.0487469 0.0482001 3.83212e-05 0.048457 8.53728e-07 272.563 
-0.37 -0.11 -1.0846 3.00232 0.0487839 0.0481484 -1.19448e-05 0.0484724 8.52651e-07 272.994 
-0.35 -0.11 -1.47261 2.9786 0.04877 0.0481791 2.07183e-05 0.048454 8.53218e-07 272.709 
-0.33 -0.11 -1.63365 2.98256 0.0487569 0.0481619 1.36259e-05 0.0484369 8.52924e-07 272.707 
-0.35 -0.09 -1.48094 3.41731 0.0487473 0.0481775 1.98006e-05 0.0484725 8.52481e-07 273.049 
-0.49 -0.13 -0.103669 1.47602 0.0486931 0.0482895 -0.000192466 0.0484749 8.53613e-07 272.701 
-0.47 -0.13 -0.243337 1.98884 0.0487054 0.0482284 -0.000191847 0.048454 8.52796e-07 272.844 
-0.45 -0.13 -0.205871 2.39004 0.0487349 0.0482522 -0.000151979 0.0484689 8.52999e-07 272.863 
-0.49 -0.11 -0.00775139 1.64745 0.0487205 0.0482963 -0.000228968 0.0484856 8.52797e-07 273.022 
-0.43 -0.13 -0.384884 2.4686 0.0487354 0.0481283 -0.000134462 0.0484473 8.52201e-07 272.997 
-0.47 -0.11 -0.267763 2.13425 0.048718 0.0482287 -0.000187675 0.0484728 8.52903e-07 272.916 
-0.41 -0.13 -0.85276 2.59449 0.0487982 0.0482465 -8.01778e-05 0.0485091 8.52964e-07 273.101 
-0.45 -0.11 -0.419561 2.37551 0.0487322 0.0481919 -0.000163497 0.0484749 8.52269e-07 273.13 
-0.49 -0.09 -0.177912 1.87804 0.048589 0.0482356 -0.000230333 0.0484042 8.5203e-07 272.809 
-0.39 -0.13 -0.965299 2.92112 0.0488 0.048243 -2.13838e-05 0.0485422 8.53793e-07 273.022 
-0.43 -0.11 -0.524318 2.74585 0.0487506 0.0481269 -0.00013013 0.0484579 8.51898e-07 273.154 
-0.47 -0.09 -0.331222 2.38767 0.0486318 0.0482183 -0.000220614 0.0484366 8.523e-07 272.905 
-0.41 -0.11 -0.513125 2.88069 0.0487413 0.0481875 -0.000105642 0.048473 8.52638e-07 273.002 
-0.45 -0.09 -0.611908 2.56384 0.0486609 0.048156 -0.000190327 0.0483809 8.52045e-07 272.673 
-0.39 -0.11 -0.985981 3.08564 0.0487512 0.0481748 -6.37129e-05 0.0485016 8.52573e-07 273.184 
-0.43 -0.09 -0.815871 2.82598 0.048669 0.0480858 -0.000156176 0.048406 8.51906e-07 272.859 
-0.41 -0.09 -0.959957 3.01553 0.0487155 0.0481282 -0.000120966 0.0484458 8.52713e-07 272.825 
-0.39 -0.09 -0.842992 3.21547 0.0487162 0.048158 -4.60804e-05 0.0484365 8.52444e-07 272.859 
-0.37 -0.09 -1.16455 3.25877 0.0487013 0.0481022 -2.65054e-05 0.0484126 8.51765e-07 272.941 
-0.35 -0.03 -1.69341 3.90105 0.0485803 0.0480346 -2.95493e-05 0.0483013 8.50436e-07 272.739 
-0.37 -0.07 -1.35515 3.52902 0.0487175 0.0480877 -3.60479e-05 0.0484261 8.52274e-07 272.854 
-0.41 -0.05 -1.03371 3.37279 0.0486117 0.0480342 -0.000135953 0.0483378 8.50756e-07 272.843 
-0.45 -0.03 -0.514906 3.36211 0.0485413 0.0480077 -0.000260323 0.0483023 8.50206e-07 272.818 
-0.35 -0.07 -1.61175 3.68332 0.048713 0.048098 2.24374e-06 0.0484055 8.51971e-07 272.835 
-0.39 -0.05 -1.26706 3.54529 0.0485935 0.0480688 -0.000101006 0.0483271 8.5045e-07 272.88 
-0.43 -0.03 -0.71161 3.73965 0.0485206 0.0480037 -0.000203377 0.0482909 8.50139e-07 272.776 
-0.33 -0.07 -1.74371 3.49665 0.0487504 0.0481281 3.21317e-05 0.0484511 8.52489e-07 272.927 
-0.37 -0.05 -1.47488 3.93669 0.0485904 0.048039 -8.7422e-05 0.0483218 8.50165e-07 272.942 
-0.41 -0.03 -0.949649 3.58681 0.0485735 0.0480167 -0.000136513 0.0482897 8.49759e-07 272.891 
-0.35 -0.05 -1.60283 3.5997 0.0485913 0.0480548 -3.15841e-05 0.0483253 8.50662e-07 272.802 
-0.39 -0.03 -1.32071 3.90543 0.0485912 0.0480458 -0.000118078 0.0483247 8.49477e-07 273.179 
-0.33 -0.05 -1.86605 3.78489 0.0486097 0.0480523 2.51049e-05 0.0483511 8.51675e-07 272.623 
-0.37 -0.03 -1.5942 3.92122 0.0486167 0.0479659 -2.96393e-05 0.0482644 8.49838e-07 272.723 
-0.33 -0.03 -1.9801 4.12668 0.0485802 0.0480061 2.33909e-05 0.0483162 8.50015e-07 272.958 
-0.49 -0.07 0.0260656 2.0305 0.0485741 0.0482099 -0.000247732 0.0483967 8.5164e-07 272.891 
-0.47 -0.07 -0.175682 2.52242 0.0485859 0.0481924 -0.000228133 0.0484257 8.51875e-07 272.979 
-0.45 -0.07 -0.360681 2.87607 0.048618 0.0480879 -0.000203755 0.0483586 8.51341e-07 272.772 
-0.49 -0.05 -0.092456 2.12167 0.0484755 0.0481567 -0.000299245 0.0482893 8.49545e-07 272.958 
-0.43 -0.07 -0.717237 3.12382 0.048603 0.0481217 -0.000156998 0.0483881 8.51208e-07 272.982 
-0.47 -0.05 -0.276807 2.80602 0.0485382 0.0481865 -0.000283046 0.0483729 8.51084e-07 272.935 
-0.41 -0.07 -0.908717 3.13838 0.0485855 0.0480665 -0.00013078 0.0483283 8.50578e-07 272.846 
-0.45 -0.05 -0.428496 3.05603 0.0485462 0.0480171 -0.000225025 0.0482937 8.49978e-07 272.843 
-0.49 -0.03 -0.0247434 2.30985 0.0485033 0.0481353 -0.000327119 0.0483111 8.50125e-07 272.894 
-0.39 -0.07 -1.12515 3.35632 0.0486427 0.048092 -0.00010265 0.0483851 8.51822e-07 272.768 
-0.43 -0.05 -0.689202 3.40658 0.0486383 0.0481015 -0.000168475 0.0483938 8.51584e-07 272.893 
-0.47 -0.03 -0.247467 2.90274 0.0485402 0.0481249 -0.000269117 0.0483269 8.50475e-07 272.871 
-0.27 -0.07 -2.5215 3.52559 0.0486551 0.0481851 0.000101619 0.0484416 8.52314e-07 272.929 
-0.31 -0.05 -2.16847 3.81597 0.0486328 0.0480714 8.05128e-05 0.0483826 8.51589e-07 272.828 
-0.27 -0.09 -2.35234 3.37813 0.048738 0.0481869 9.40786e-05 0.0484729 8.53207e-07 272.819 
-0.31 -0.07 -2.04342 3.36259 0.0487266 0.0481045 7.04073e-05 0.0484344 8.52712e-07 272.76 
-0.29 -0.07 -2.44579 3.7302 0.0486771 0.0481421 0.000114834 0.0484082 8.51508e-07 272.999 
-0.25 -0.07 -2.57882 3.00574 0.0486754 0.0481976 0.000111464 0.0484486 8.52341e-07 272.959 
-0.29 -0.05 -2.17772 3.67988 0.0486641 0.0481481 0.000101715 0.0483912 8.5171e-07 272.838 
-0.27 -0.05 -2.38241 3.60042 0.048665 0.0481834 8.5328e-05 0.0484106 8.51329e-07 273.07 
-0.31 -0.03 -2.20333 3.95087 0.04859 0.0480602 1.939e-05 0.0483118 8.50044e-07 272.924 
-0.25 -0.05 -2.47805 3.21327 0.0486924 0.0481802 9.9051e-05 0.0484308 8.51971e-07 272.978 
-0.29 -0.03 -2.31022 3.83303 0.0486068 0.0481007 4.74822e-05 0.0483607 8.50857e-07 272.94 
-0.27 -0.03 -2.44199 3.69172 0.0486452 0.0481902 8.51972e-05 0.0484306 8.52693e-07 272.745 
-0.25 -0.03 -2.30407 3.18843 0.0486373 0.0481795 9.26594e-05 0.0484179 8.52429e-07 272.758 
-0.27 -0.01 -2.21318 3.76604 0.0485467 0.0481446 8.04053e-05 0.0483849 8.51328e-07 272.925 
-0.31 -0.25 -1.73612 1.81354 0.0488465 0.0483162 0.000105249 0.0485804 8.5475e-07 272.931 
-0.29 -0.25 -1.94046 1.69681 0.0488828 0.0483253 9.12667e-05 0.0485969 8.55001e-07 272.943 
-0.27 -0.25 -1.9537 1.71652 0.0488785 0.048332 0.000100726 0.0486113 8.54759e-07 273.101 
-0.29 -0.11 -2.0327 2.99357 0.0487687 0.0481789 7.20748e-05 0.0485025 8.53889e-07 272.768 
-0.33 -0.09 -1.84721 3.19159 0.0487548 0.0481577 4.55323e-05 0.048423 8.52446e-07 272.782 
-0.27 -0.11 -2.23032 3.07943 0.0487751 0.0482155 9.42763e-05 0.0484893 8.53506e-07 272.816 
-0.31 -0.09 -1.97826 3.34195 0.0487031 0.0481215 6.51533e-05 0.0484209 8.51488e-07 273.077 
-0.29 -0.09 -2.10045 3.33194 0.0487229 0.0481649 6.48271e-05 0.0484483 8.52775e-07 272.819 
-0.33 -0.23 -1.48544 1.74271 0.0488593 0.0483286 8.88037e-05 0.0486312 8.55921e-07 272.843 
-0.31 -0.23 -1.51297 2.09279 0.0488331 0.048278 4.31679e-05 0.0485546 8.54487e-07 272.869 
-0.29 -0.23 -1.7029 1.81711 0.0488347 0.0483521 9.83974e-05 0.0486123 8.55048e-07 273.015 
-0.27 -0.23 -1.93059 1.68196 0.0488393 0.0483111 6.72856e-05 0.0485643 8.54432e-07 272.942 
-0.31 -0.21 -1.60704 2.06176 0.0488637 0.0482854 6.63008e-05 0.0485972 8.5604e-07 272.614 
-0.29 -0.21 -1.68946 1.99822 0.0488779 0.0483295 6.34996e-05 0.0486208 8.55603e-07 272.885 
-0.27 -0.21 -1.70478 1.88323 0.0488638 0.048317 0.000135456 0.0485941 8.55413e-07 272.796 
-0.31 -0.19 -1.55415 2.25087 0.0488446 0.0482953 5.58825e-05 0.0485413 8.54691e-07 272.73 
-0.25 -0.21 -2.0031 1.77904 0.0488721 0.0482389 9.0414e-05 0.0485872 8.55042e-07 272.876 
-0.29 -0.19 -1.75302 2.10189 0.048834 0.0482813 9.36037e-05 0.0485444 8.54997e-07 272.65 
-0.27 -0.19 -1.95409 2.01931 0.0488425 0.0482891 0.000114943 0.0485578 8.54106e-07 273.01 
-0.31 -0.17 -1.56405 2.28448 0.0487926 0.0482672 2.36127e-05 0.0485234 8.54219e-07 272.78 
-0.25 -0.19 -2.16715 2.13805 0.0488449 0.0482724 0.000118694 0.0485541 8.54576e-07 272.839 
-0.29 -0.17 -1.7644 2.37958 0.048824 0.0482774 9.77554e-05 0.0485474 8.54051e-07 272.968 
-0.27 -0.17 -2.14574 2.47938 0.0487971 0.0482704 0.00011257 0.0485513 8.5438e-07 272.885 
-0.31 -0.15 -1.67614 2.62489 0.0487716 0.0482186 5.66315e-05 0.0484848 8.53573e-07 272.769 
-0.25 -0.17 -2.50914 2.28339 0.04883 0.0482758 0.000112378 0.0485428 8.53807e-07 273.021 
-0.29 -0.15 -1.96668 2.65722 0.048746 0.0481926 0.000114204 0.0484621 8.53206e-07 272.759 
-0.27 -0.15 -2.20906 2.70777 0.0487745 0.0483237 0.000107956 0.0485667 8.54539e-07 272.921 
-0.31 -0.13 -1.88188 2.94529 0.0487632 0.0481955 6.76376e-05 0.0484699 8.53406e-07 272.739 
-0.25 -0.15 -2.29075 2.51453 0.0487695 0.0482756 0.00011011 0.0485093 8.5373e-07 272.857 
-0.29 -0.13 -2.18164 2.91677 0.0487818 0.0481762 6.39972e-05 0.0484997 8.54332e-07 272.611 
-0.27 -0.13 -2.44073 2.80602 0.0487652 0.0482632 9.55101e-05 0.0485236 8.54229e-07 272.778 
-0.31 -0.11 -1.85322 3.39813 0.0487907 0.0481732 5.55673e-05 0.0484929 8.52779e-07 273.069 
-0.25 -0.13 -2.45824 2.61844 0.0487936 0.0482601 0.000126926 0.0485079 8.53934e-07 272.784 
-0.25 -0.25 -1.93571 1.49082 0.04886 0.0483369 0.000121293 0.0486066 8.55449e-07 272.855 
-0.25 -0.23 -2.03751 1.69373 0.0488207 0.048284 0.000122957 0.0485464 8.54427e-07 272.843 
-0.25 -0.11 -2.43233 2.75753 0.0487767 0.0482461 9.36919e-05 0.0484893 8.52917e-07 273.004 
-0.25 -0.09 -2.6554 2.84831 0.0487375 0.0482684 0.00013138 0.0484934 8.53011e-07 272.997 
-0.25 -0.01 -2.62664 3.43783 0.0485132 0.048152 0.000130668 0.0483324 8.51257e-07 272.651 
-0.23 -0.49 -0.820398 0.0317273 0.0486653 0.0485386 0.000119637 0.0485966 8.54933e-07 272.963 
-0.21 -0.49 -0.83908 -0.0250458 0.0486985 0.0485087 0.000137754 0.048609 8.5403e-07 273.321 
-0.19 -0.49 -0.913285 0.0790461 0.0487334 0.0486011 0.000185728 0.0486706 8.55742e-07 273.12 
-0.23 -0.47 -0.838284 0.0630037 0.0487223 0.048525 9.62341e-05 0.0486331 8.5579e-07 272.895 
-0.17 -0.49 -1.05738 0.0893619 0.0487326 0.0486165 0.000140683 0.0486752 8.55851e-07 273.111 
-0.21 -0.47 -0.993242 0.155446 0.0487299 0.0484824 0.000127196 0.0486053 8.55365e-07 272.874 
-0.15 -0.49 -1.03622 -0.0156457 0.0486945 0.0486156 0.000183553 0.0486321 8.55771e-07 272.895 