ITEM: TIMESTEP
878500
ITEM: NUMBER OF CELLS
2500
ITEM: BOX BOUNDS ss ss pp
-0.5 0.5
-0.5 0.5
-0.5 0.5
ITEM: CELLS xc yc f_U[*] f_V[*] f_Tau[1] f_Tau[2] f_Tau[3] f_Press[*] f_Mrho[*] f_Ttra[*] 
-0.49 -0.49 -0.176994 0.139519 0.048687 0.048559 -4.57092e-05 0.0486907 8.55509e-07 273.307 
-0.47 -0.49 -0.179988 -0.0889194 0.0486021 0.0485479 1.11361e-05 0.0485947 8.54854e-07 272.978 
-0.45 -0.49 0.0642357 -0.1008 0.0485797 0.0485358 6.83588e-06 0.0485437 8.54471e-07 272.813 
-0.49 -0.47 0.197487 0.00473101 0.0486634 0.0485349 1.57469e-05 0.048582 8.53707e-07 273.273 
-0.43 -0.49 -0.0191988 -0.046357 0.0485569 0.0486019 1.46672e-05 0.048554 8.54051e-07 273.006 
-0.47 -0.47 0.113591 -0.0301954 0.0486834 0.0485551 3.13808e-06 0.0486577 8.54494e-07 273.447 
-0.41 -0.49 0.0481409 0.0370239 0.0486262 0.0485016 7.15517e-05 0.0485409 8.54465e-07 272.8 
-0.45 -0.47 -0.0686054 0.0394181 0.0486622 0.0485298 5.20976e-05 0.0485632 8.54014e-07 273.07 
-0.49 -0.45 -0.140286 0.0128775 0.0487548 0.0485631 4.89881e-06 0.0486763 8.55125e-07 273.349 
-0.39 -0.49 0.0770009 -0.0970668 0.0486471 0.0483986 6.92282e-06 0.0485121 8.53868e-07 272.828 
-0.43 -0.47 -0.0991172 -0.050475 0.0486571 0.0485757 1.49593e-05 0.0486472 8.5532e-07 273.124 
-0.47 -0.45 -0.139971 0.107771 0.0487098 0.0485034 5.72158e-05 0.0486152 8.5411e-07 273.331 
-0.37 -0.49 -0.0390829 0.162221 0.0487238 0.0485294 1.7156e-05 0.0486035 8.55624e-07 272.782 
-0.41 -0.47 -0.111242 0.0698072 0.0486132 0.0484754 1.5838e-05 0.0485543 8.55566e-07 272.524 
-0.45 -0.45 -0.41866 0.183428 0.048794 0.0485993 -5.79668e-06 0.0486805 8.55731e-07 273.179 
-0.49 -0.43 -0.0131776 0.210798 0.048643 0.0485189 1.39938e-05 0.048631 8.56127e-07 272.775 
-0.35 -0.49 -0.176779 0.0376083 0.0487337 0.048605 0.000126153 0.048617 8.55968e-07 272.748 
-0.39 -0.47 -0.430871 0.148039 0.0486447 0.0484213 2.57835e-05 0.0485282 8.54093e-07 272.847 
-0.43 -0.45 -0.41542 0.0545405 0.0488083 0.048552 2.2317e-05 0.0486206 8.54047e-07 273.381 
-0.47 -0.43 -0.225245 0.165608 0.0487437 0.048549 -3.04293e-05 0.048675 8.56783e-07 272.813 
-0.37 -0.47 -0.483303 0.127176 0.0486635 0.0484683 -9.5501e-06 0.0485369 8.53793e-07 272.992 
-0.41 -0.45 -0.490755 0.181378 0.0487573 0.0485089 4.34819e-05 0.0486393 8.54792e-07 273.248 
-0.45 -0.43 -0.366376 0.429087 0.0487364 0.0486729 -6.16456e-05 0.0486737 8.55868e-07 273.098 
-0.49 -0.41 -0.080021 0.287066 0.0488155 0.0484664 -3.05582e-05 0.0486199 8.55839e-07 272.805 
-0.35 -0.47 -0.646952 0.161049 0.0487176 0.048549 0.000107271 0.0486211 8.54645e-07 273.193 
-0.39 -0.45 -0.557285 0.273493 0.0487557 0.048414 -3.10451e-05 0.0485773 8.54262e-07 273.069 
-0.43 -0.43 -0.399633 -0.117827 0.0487407 0.0484772 2.91171e-05 0.0486121 8.5501e-07 273.026 
-0.47 -0.41 -0.241677 0.320616 0.0488055 0.0486259 -3.36948e-05 0.0487113 8.56814e-07 273.007 
-0.37 -0.45 -0.774002 0.169893 0.0486617 0.0484696 4.99736e-05 0.048521 8.54584e-07 272.65 
-0.41 -0.43 -0.587926 0.352305 0.0488163 0.0485623 8.0702e-06 0.0486595 8.5574e-07 273.059 
-0.45 -0.41 -0.0404013 0.162999 0.048811 0.0485652 1.88103e-05 0.0486815 8.55991e-07 273.102 
-0.49 -0.39 0.103215 0.246216 0.0487405 0.0484726 -6.14681e-05 0.0485792 8.55338e-07 272.736 
-0.35 -0.45 -0.635629 0.217823 0.0486723 0.0484702 6.14844e-05 0.0485594 8.55435e-07 272.594 
-0.39 -0.43 -0.657297 0.292559 0.0487807 0.0483701 2.07659e-05 0.048562 8.54307e-07 272.969 
-0.43 -0.41 -0.256081 0.290392 0.0487547 0.048537 -4.39647e-05 0.0486449 8.54814e-07 273.272 
-0.47 -0.39 0.223054 0.257298 0.0488174 0.0486103 -5.40449e-05 0.0486774 8.56662e-07 272.865 
-0.37 -0.43 -0.787285 0.299687 0.0488076 0.0484073 4.94613e-05 0.0485888 8.55241e-07 272.821 
-0.41 -0.41 -0.634968 0.501754 0.0487688 0.0485014 2.25025e-05 0.0486016 8.54392e-07 273.164 
-0.45 -0.39 0.0917429 0.487133 0.0488218 0.0484612 1.90642e-05 0.0486618 8.54912e-07 273.336 
-0.35 -0.43 -0.968764 0.220207 0.0488586 0.0485329 2.32385e-05 0.0486591 8.56148e-07 272.926 
-0.39 -0.41 -0.717844 0.355945 0.0487838 0.0484071 3.23701e-05 0.0485899 8.54746e-07 272.985 
-0.43 -0.39 -0.398269 0.670703 0.0488394 0.0485994 -6.65459e-06 0.0487376 8.56102e-07 273.381 
-0.37 -0.41 -0.582641 0.495761 0.0487586 0.0484321 2.14463e-06 0.0485849 8.54247e-07 273.117 
-0.41 -0.39 -0.488923 0.664585 0.0487655 0.0484425 4.85326e-06 0.0486156 8.5504e-07 273.036 
-0.35 -0.41 -1.08737 0.478737 0.0487044 0.0484762 -3.02256e-05 0.0485281 8.54405e-07 272.747 
-0.39 -0.39 -0.660176 0.37181 0.0487291 0.0483895 3.21248e-05 0.0485409 8.54887e-07 272.665 
-0.37 -0.39 -0.716428 0.454835 0.0487748 0.0484595 5.38171e-05 0.0485926 8.54589e-07 273.05 
-0.35 -0.39 -0.640312 0.887888 0.0488211 0.0484891 9.04543e-05 0.0485891 8.54936e-07 272.92 
-0.37 -0.37 -0.91734 0.464626 0.0488047 0.048462 -6.3806e-06 0.0485949 8.53955e-07 273.267 
-0.33 -0.49 -0.393066 0.123303 0.0486668 0.0484483 8.64581e-05 0.048532 8.54309e-07 272.799 
-0.33 -0.47 -0.449872 0.401085 0.0486766 0.0484942 0.000101809 0.0485992 8.54023e-07 273.268 
-0.33 -0.43 -0.874281 0.0142587 0.0488002 0.0484943 4.23125e-05 0.048649 8.5637e-07 272.799 
-0.49 -0.37 -0.0178645 0.105074 0.0487699 0.0485648 -7.8862e-05 0.0486554 8.55549e-07 273.096 
-0.47 -0.37 -0.00109588 0.42795 0.0487568 0.0484634 -4.733e-05 0.0486088 8.5615e-07 272.643 
-0.45 -0.37 -0.45002 0.669654 0.0487683 0.0485462 -1.03707e-05 0.0486192 8.54435e-07 273.249 
-0.49 -0.35 -0.0331229 0.301698 0.0487796 0.048579 -1.50814e-05 0.0486449 8.56561e-07 272.715 
-0.43 -0.37 -0.337788 0.773025 0.048785 0.048538 2.29269e-05 0.0486423 8.54414e-07 273.386 
-0.47 -0.35 -0.111522 0.504046 0.0487839 0.0484297 -4.50248e-05 0.0486141 8.55438e-07 272.9 
-0.45 -0.35 -0.161481 0.772867 0.048814 0.0485286 -2.66607e-05 0.0487016 8.55245e-07 273.453 
-0.49 -0.33 -0.108267 0.440846 0.0488894 0.0485609 -2.45433e-05 0.0487328 8.57419e-07 272.935 
-0.39 -0.37 -0.487741 0.761089 0.0487787 0.0484069 6.46728e-05 0.0485352 8.54034e-07 272.905 
-0.43 -0.35 -0.261657 0.603612 0.0488252 0.0484899 -3.31174e-05 0.0486614 8.5608e-07 272.961 
-0.47 -0.33 -0.303244 0.536133 0.0489162 0.048505 -3.0998e-05 0.0486999 8.559e-07 273.235 
-0.41 -0.35 -0.327111 0.806924 0.0488078 0.0483936 7.68943e-05 0.048612 8.55007e-07 273.026 
-0.45 -0.33 -0.366475 0.881483 0.0488417 0.0484872 -6.21288e-05 0.0486614 8.5562e-07 273.108 
-0.49 -0.31 -0.0701695 0.604359 0.04869 0.0484709 -7.52522e-05 0.0485628 8.53955e-07 273.086 
-0.39 -0.35 -0.550978 1.14712 0.0488819 0.0484522 1.00089e-06 0.0486365 8.55095e-07 273.136 
-0.43 -0.33 -0.428109 0.689573 0.0488482 0.0484368 2.24355e-05 0.0486448 8.54868e-07 273.255 
-0.47 -0.31 -0.188237 0.820652 0.0487059 0.0485121 -3.39787e-05 0.0485899 8.54207e-07 273.158 
-0.37 -0.35 -0.912487 0.990349 0.0488227 0.048411 9.7474e-05 0.0486011 8.5576e-07 272.724 
-0.41 -0.33 -0.679247 0.889254 0.0488701 0.0484201 -3.38041e-05 0.0486471 8.55316e-07 273.125 
-0.45 -0.31 -0.302789 0.798089 0.0487814 0.0485239 -6.81531e-05 0.0486242 8.54959e-07 273.11 
-0.49 -0.29 -0.0843246 0.742622 0.0487064 0.0484263 -7.57487e-05 0.048607 8.54607e-07 273.126 
-0.35 -0.35 -1.10313 0.788728 0.0488439 0.0483912 4.2623e-05 0.0486115 8.54404e-07 273.216 
-0.39 -0.33 -0.821957 1.38717 0.0488538 0.0484187 3.29409e-05 0.0486037 8.55887e-07 272.699 
-0.43 -0.31 -0.583298 0.988963 0.0487863 0.0483873 -7.7335e-05 0.0486167 8.54058e-07 273.356 
-0.47 -0.29 -0.169622 0.871572 0.0487322 0.048538 -8.91211e-05 0.0486369 8.5479e-07 273.235 
-0.37 -0.33 -0.543687 1.12786 0.0488955 0.0484932 5.0456e-05 0.0486562 8.5596e-07 272.97 
-0.41 -0.31 -0.840836 1.02775 0.0488361 0.0483487 1.44626e-05 0.0486316 8.55267e-07 273.053 
-0.45 -0.29 -0.133449 0.927077 0.0487709 0.0484967 -3.82182e-05 0.0486321 8.54758e-07 273.218 
-0.49 -0.27 -0.153277 0.826095 0.048798 0.048441 -7.72074e-05 0.0486432 8.54725e-07 273.292 
-0.35 -0.33 -0.615197 0.925505 0.0488505 0.048325 4.23773e-05 0.0485977 8.55103e-07 272.915 
-0.39 -0.31 -0.702307 1.25272 0.0488628 0.0484061 4.87403e-05 0.0486484 8.54594e-07 273.363 
-0.43 -0.29 -0.285911 1.31573 0.048726 0.0483521 -5.06365e-05 0.0485815 8.54824e-07 272.913 
-0.47 -0.27 -0.23695 0.851759 0.0488611 0.0485043 -0.000126261 0.0487379 8.55857e-07 273.461 
-0.37 -0.31 -0.600781 0.918778 0.0488556 0.0484384 4.17763e-05 0.0486313 8.55957e-07 272.831 
-0.41 -0.29 -0.502632 1.07241 0.0487469 0.0482963 -6.24103e-05 0.048562 8.54361e-07 272.951 
-0.45 -0.27 -0.197193 0.984333 0.0488687 0.0484228 -3.97095e-05 0.048646 8.55751e-07 272.979 
-0.35 -0.31 -0.850301 1.24898 0.0488714 0.0483774 4.67715e-05 0.0486446 8.55593e-07 273.022 
-0.39 -0.29 -0.36176 1.28663 0.0488166 0.0484168 -8.45401e-06 0.0485874 8.53322e-07 273.427 
-0.43 -0.27 -0.37991 1.49333 0.0488361 0.0484221 1.14505e-08 0.0486283 8.54861e-07 273.164 
-0.37 -0.29 -0.763199 0.887566 0.0488287 0.0484266 1.45312e-05 0.0486579 8.54397e-07 273.479 
-0.41 -0.27 -0.372737 1.23958 0.0487924 0.0483443 -7.7349e-05 0.0485452 8.54465e-07 272.824 
-0.35 -0.29 -0.928965 1.49972 0.048837 0.0483611 7.19152e-05 0.0485738 8.54629e-07 272.932 
-0.39 -0.27 -0.951576 1.34716 0.048708 0.0483464 -5.89429e-05 0.0485715 8.54675e-07 272.905 
-0.33 -0.29 -0.883811 1.26685 0.0488861 0.0483413 5.66321e-05 0.0485985 8.55567e-07 272.772 
-0.37 -0.27 -1.05768 1.37087 0.0487739 0.0483408 1.96796e-06 0.0485798 8.55612e-07 272.652 
-0.35 -0.27 -1.13569 1.42915 0.0488248 0.0483461 5.0788e-05 0.0485871 8.55017e-07 272.883 
-0.33 -0.27 -1.43592 1.19663 0.0488123 0.0483365 6.26229e-05 0.0485288 8.54599e-07 272.689 
-0.41 -0.37 -0.149127 0.730488 0.0488316 0.048437 2.58592e-05 0.0486345 8.5538e-07 273.033 
-0.35 -0.37 -0.889807 1.18379 0.048754 0.048405 4.57235e-05 0.0485836 8.54826e-07 272.925 
-0.33 -0.37 -0.852731 0.424379 0.0487603 0.0485062 4.19376e-05 0.0485925 8.54505e-07 273.077 
-0.33 -0.35 -1.07984 0.782946 0.0488322 0.0484763 8.70236e-05 0.0486525 8.55411e-07 273.124 
-0.33 -0.31 -1.00459 1.12207 0.0488544 0.0483738 8.16634e-05 0.048625 8.55928e-07 272.805 
-0.35 -0.25 -1.18389 1.46321 0.0487913 0.048307 1.88203e-05 0.0485781 8.54481e-07 273.003 
-0.31 -0.49 -0.593663 0.176037 0.0487145 0.0486157 9.02577e-05 0.0487304 8.55853e-07 273.421 
-0.29 -0.49 -0.672613 -0.0403369 0.0486328 0.048488 3.22129e-05 0.0485835 8.53558e-07 273.329 
-0.27 -0.49 -0.786161 -0.0302195 0.0486331 0.0483496 0.000114152 0.0485059 8.53803e-07 272.814 
-0.31 -0.47 -0.790342 0.118873 0.0487084 0.048613 0.000104646 0.0486653 8.54641e-07 273.442 
-0.29 -0.47 -0.718819 0.0473866 0.0486909 0.048426 0.000142491 0.0486114 8.54261e-07 273.261 
-0.27 -0.47 -0.608262 0.0170126 0.0486939 0.0484246 6.19286e-05 0.0485395 8.53425e-07 273.124 
-0.31 -0.45 -0.471146 0.498616 0.0488041 0.0485528 7.37173e-05 0.0486557 8.56191e-07 272.893 
-0.29 -0.45 -0.689116 0.0916606 0.0487924 0.0484758 0.000140445 0.0486364 8.54611e-07 273.29 
-0.27 -0.45 -1.02406 0.180998 0.0487802 0.048457 0.000123881 0.0485967 8.54275e-07 273.174 
-0.31 -0.43 -0.9347 0.443092 0.0488127 0.0485117 8.80959e-05 0.0486689 8.57024e-07 272.703 
-0.29 -0.43 -1.17235 0.412798 0.0488458 0.048462 0.000129633 0.0486319 8.55598e-07 272.949 
-0.27 -0.43 -1.15277 0.413639 0.0488387 0.0484594 0.00013875 0.0486562 8.55987e-07 272.962 
-0.31 -0.41 -1.30747 0.396717 0.048785 0.0484852 0.000104372 0.04863 8.55101e-07 273.097 
-0.25 -0.43 -1.21459 0.329055 0.0488023 0.0485197 0.000134259 0.0486763 8.54541e-07 273.536 
-0.29 -0.41 -1.15558 0.434913 0.048798 0.0484337 8.84766e-05 0.0486337 8.55499e-07 272.991 
-0.27 -0.41 -1.20814 0.320289 0.0488302 0.0484499 0.000146157 0.0486385 8.56042e-07 272.845 
-0.31 -0.39 -1.35843 0.497408 0.0487847 0.0484574 7.53974e-05 0.048588 8.54663e-07 273.001 
-0.25 -0.41 -1.35112 0.438236 0.0488471 0.0485379 0.000141341 0.0486817 8.55402e-07 273.291 
-0.29 -0.39 -1.4316 0.258254 0.0487509 0.0483739 0.00011203 0.0485502 8.54716e-07 272.772 
-0.27 -0.39 -1.61241 0.655059 0.0487371 0.0484377 0.000133652 0.0486122 8.54862e-07 273.074 
-0.31 -0.37 -1.08668 0.668724 0.0487102 0.0483727 9.21721e-05 0.0485488 8.54708e-07 272.767 
-0.25 -0.39 -1.69681 0.485127 0.0487459 0.0485001 0.000166749 0.0486282 8.54689e-07 273.218 
-0.29 -0.37 -1.40938 0.526186 0.0487558 0.0484057 9.77541e-05 0.0485664 8.5469e-07 272.871 
-0.27 -0.37 -1.32811 0.776906 0.0488193 0.0484185 7.86013e-05 0.0486235 8.54921e-07 273.118 
-0.31 -0.35 -1.24652 0.752357 0.0488655 0.0483893 4.41308e-05 0.0486433 8.55303e-07 273.107 
-0.29 -0.35 -1.13159 0.763234 0.0488489 0.0483789 7.79731e-05 0.0486228 8.55722e-07 272.859 
-0.27 -0.35 -1.44963 0.750484 0.0487936 0.0484041 9.56182e-05 0.0485784 8.56155e-07 272.471 
-0.31 -0.33 -1.05522 0.84389 0.0488059 0.0484093 6.60316e-05 0.0486109 8.55188e-07 272.962 
-0.29 -0.33 -1.47146 0.976529 0.0487838 0.0482953 9.1942e-05 0.0485449 8.54459e-07 272.824 
-0.27 -0.33 -1.52849 0.71088 0.0488194 0.0484354 0.00018786 0.0486128 8.5585e-07 272.762 
-0.31 -0.31 -1.12257 0.903692 0.048888 0.0484045 0.000132555 0.0486088 8.55229e-07 272.937 
-0.29 -0.31 -1.15103 1.11562 0.0488846 0.04832 0.000120279 0.0486384 8.55891e-07 272.892 
-0.27 -0.31 -1.61209 1.3526 0.0488821 0.0484065 9.01724e-05 0.0486305 8.5487e-07 273.174 
-0.31 -0.29 -1.08453 1.10843 0.0488671 0.0483663 6.76313e-05 0.0486153 8.55e-07 273.047 
-0.25 -0.31 -1.88722 0.969526 0.0488771 0.0484499 0.000177433 0.0486942 8.55642e-07 273.285 
-0.29 -0.29 -1.51397 1.3984 0.0488783 0.0483582 8.50326e-05 0.048604 8.54999e-07 272.984 
-0.27 -0.29 -1.63915 1.49997 0.0488876 0.0483619 0.000146768 0.0485713 8.54139e-07 273.075 
-0.31 -0.27 -1.54591 1.32757 0.0487932 0.0483499 6.04471e-05 0.0486152 8.5501e-07 273.043 
-0.25 -0.29 -1.96432 1.31326 0.0488619 0.0484153 0.000149638 0.0486278 8.55245e-07 273.039 
-0.29 -0.27 -1.52371 1.88617 0.0487668 0.0482926 0.000128238 0.0485345 8.53422e-07 273.097 
-0.27 -0.27 -1.94277 1.66616 0.0487522 0.048316 0.0001014 0.0485341 8.53612e-07 273.034 
-0.25 -0.27 -2.07972 1.52047 0.0487878 0.0483889 0.00017595 0.0485714 8.54884e-07 272.838 
-0.33 -0.45 -0.709909 0.118294 0.0488114 0.0485674 7.5538e-05 0.0486305 8.5502e-07 273.126 
-0.33 -0.41 -1.48501 0.157877 0.0487638 0.0484711 6.36007e-05 0.0485826 8.54928e-07 272.886 
-0.33 -0.39 -0.98715 0.410781 0.0487767 0.048433 1.48194e-05 0.0485562 8.54255e-07 272.953 
-0.33 -0.33 -0.924041 0.914946 0.0488523 0.0484634 7.42347e-05 0.048666 8.55423e-07 273.196 
-0.25 -0.49 -0.755554 0.0244805 0.04869 0.0485919 0.000102974 0.0486924 8.56177e-07 273.104 
-0.25 -0.47 -0.585707 0.0924682 0.0487192 0.0485182 5.45857e-05 0.0486211 8.55382e-07 272.958 
-0.25 -0.45 -1.26741 0.0554057 0.0487216 0.0484932 6.3243e-05 0.0486421 8.54663e-07 273.305 
-0.25 -0.37 -1.47914 0.558249 0.0488155 0.048509 0.000115454 0.0486501 8.55619e-07 273.044 
-0.25 -0.35 -1.55867 0.918698 0.0487809 0.0484685 0.000130938 0.0485794 8.546e-07 272.973 
-0.25 -0.33 -1.68138 1.10847 0.04875 0.0484835 6.23638e-05 0.0486537 8.55372e-07 273.144 
-0.49 -0.25 -0.0172642 1.1934 0.0487828 0.0484952 -0.000142359 0.0486728 8.55072e-07 273.347 
-0.47 -0.25 -0.344031 1.01411 0.0487718 0.0484697 -9.30661e-05 0.0486184 8.55066e-07 273.043 
-0.45 -0.25 -0.641942 0.980884 0.048681 0.0483265 -5.97471e-05 0.0485508 8.54081e-07 272.978 
-0.49 -0.23 0.0870495 1.24717 0.0486625 0.0484616 -0.000183362 0.0485511 8.54161e-07 272.954 
-0.47 -0.23 -0.267997 1.41662 0.0486837 0.0483602 -0.00011787 0.048526 8.5415e-07 272.817 
-0.45 -0.23 -0.570591 0.983468 0.0487667 0.0483645 -9.79806e-05 0.0485954 8.5416e-07 273.204 
-0.49 -0.21 -0.192777 1.42852 0.0487475 0.0484366 -0.000201073 0.0485978 8.55867e-07 272.672 
-0.43 -0.23 -0.642179 1.26583 0.0487946 0.0484147 -8.23066e-05 0.0485761 8.54468e-07 272.996 
-0.47 -0.21 -0.137827 1.43906 0.0487755 0.0483191 -0.000160206 0.0485808 8.54834e-07 272.906 
-0.41 -0.23 -0.703397 1.61069 0.0488273 0.0483213 -2.51514e-05 0.0485845 8.54714e-07 272.965 
-0.45 -0.21 -0.269305 1.27178 0.0488161 0.0483169 -9.4538e-05 0.0485908 8.5426e-07 273.145 
-0.49 -0.19 -0.094274 1.46571 0.0488618 0.0484356 -0.000161534 0.0486223 8.56534e-07 272.597 
-0.39 -0.23 -0.642223 1.83164 0.0488379 0.0483162 -2.65673e-05 0.0486214 8.54856e-07 273.127 
-0.43 -0.21 -0.751941 1.50942 0.0488507 0.048437 -8.22459e-05 0.0486463 8.55218e-07 273.151 
-0.47 -0.19 -0.153343 1.46718 0.048815 0.0482877 -0.00013026 0.0485482 8.55192e-07 272.609 
-0.41 -0.21 -0.883069 1.7018 0.0488405 0.0482889 -6.86258e-05 0.0486018 8.55029e-07 272.962 
-0.45 -0.19 -0.371559 1.7194 0.0488223 0.0483465 -0.000135285 0.0485838 8.5467e-07 272.976 
-0.49 -0.17 0.110297 1.45167 0.0487805 0.0484298 -0.000173463 0.0486127 8.55606e-07 272.839 
-0.39 -0.21 -1.00683 1.95168 0.0488351 0.0482801 -3.47034e-05 0.0485886 8.55524e-07 272.73 
-0.43 -0.19 -0.578876 1.82851 0.0488557 0.0483778 -0.000132538 0.0486476 8.55671e-07 273.014 
-0.47 -0.17 -0.140882 1.93602 0.0488063 0.0482111 -0.000133953 0.0485131 8.53673e-07 272.897 
-0.41 -0.19 -0.834748 1.70132 0.048862 0.0482677 -4.18591e-05 0.0485719 8.54664e-07 272.91 
-0.45 -0.17 -0.389496 1.69669 0.0488385 0.0483535 -0.000160771 0.0485976 8.54608e-07 273.072 
-0.49 -0.15 0.0790901 1.34927 0.0487052 0.0483558 -0.000185013 0.0485281 8.53868e-07 272.918 
-0.39 -0.19 -1.06078 2.26474 0.0488096 0.0482398 -2.11131e-05 0.0485247 8.54173e-07 272.802 
-0.43 -0.17 -0.615658 2.05882 0.048772 0.0482887 -8.32669e-05 0.0485996 8.54535e-07 273.107 
-0.47 -0.15 0.423271 1.85655 0.048721 0.0482219 -0.000183158 0.0484248 8.53098e-07 272.583 
-0.41 -0.17 -0.76798 2.07335 0.0487033 0.0482304 -1.69904e-05 0.0484861 8.52621e-07 273.081 
-0.45 -0.15 -0.0175922 2.37538 0.0487529 0.048347 -0.000137258 0.0485499 8.53498e-07 273.159 
-0.39 -0.17 -0.775903 2.1849 0.0487565 0.0482451 -6.84975e-05 0.0484981 8.53164e-07 272.975 
-0.43 -0.15 -0.461044 2.21993 0.0486989 0.0481545 -1.46805e-05 0.0484671 8.53438e-07 272.712 
-0.41 -0.15 -0.655163 2.10647 0.0488013 0.0482808 -4.26284e-05 0.0485606 8.539e-07 273.091 
-0.39 -0.15 -0.902013 2.55584 0.0487667 0.048243 -4.98911e-05 0.0485147 8.533e-07 273.025 
-0.43 -0.25 -0.33496 1.37841 0.0487748 0.0485152 -1.71784e-05 0.0486297 8.55258e-07 273.045 
-0.41 -0.25 -0.370765 1.52972 0.0488232 0.048273 -2.27085e-05 0.0485791 8.54883e-07 272.881 
-0.39 -0.25 -0.650592 1.665 0.0488469 0.0483885 -3.01343e-05 0.0486084 8.5584e-07 272.74 
-0.33 -0.25 -1.20205 1.63025 0.0488074 0.0483069 4.46552e-05 0.0485848 8.54368e-07 273.077 
-0.37 -0.25 -1.02289 1.45752 0.0488021 0.0482781 -4.59913e-06 0.0485443 8.55534e-07 272.478 
-0.37 -0.23 -0.887656 1.96917 0.0488377 0.048291 5.87589e-06 0.0486321 8.56329e-07 272.717 
-0.35 -0.23 -1.09208 1.64615 0.0488288 0.0482825 -2.2683e-06 0.0485969 8.55967e-07 272.635 
-0.37 -0.21 -1.21866 2.09332 0.0488203 0.0482618 -6.3046e-06 0.048592 8.55044e-07 272.902 
-0.35 -0.21 -1.24807 1.78524 0.0488561 0.0483238 -3.57557e-06 0.0485913 8.5475e-07 272.992 
-0.33 -0.21 -1.40731 2.26349 0.0489009 0.0483048 2.02569e-05 0.0486422 8.56112e-07 272.843 
-0.37 -0.19 -0.964885 1.97861 0.0488697 0.0482658 -8.17668e-06 0.0485806 8.55804e-07 272.595 
-0.35 -0.19 -1.10119 2.0368 0.048842 0.0483014 -1.58078e-05 0.0485658 8.55148e-07 272.722 
-0.33 -0.19 -1.27175 2.47024 0.0487661 0.0482099 6.083e-05 0.0485406 8.54897e-07 272.66 
-0.37 -0.17 -1.05669 2.25638 0.0487546 0.0482248 -4.49877e-05 0.0485045 8.53576e-07 272.879 
-0.35 -0.17 -1.40973 2.36736 0.048749 0.0482411 3.56328e-05 0.0485281 8.54084e-07 272.85 
-0.33 -0.17 -1.64254 2.61875 0.0487596 0.0481983 6.11672e-05 0.048504 8.54011e-07 272.737 
-0.37 -0.15 -1.1948 2.55494 0.04877 0.0482166 -2.60211e-05 0.0484635 8.51363e-07 273.357 
-0.35 -0.15 -1.39388 2.57853 0.0487409 0.0481677 3.1965e-06 0.0484617 8.52853e-07 272.869 
-0.33 -0.15 -1.63057 2.66121 0.0487791 0.0481718 1.43219e-05 0.0484897 8.54284e-07 272.57 
-0.37 -0.13 -1.28901 2.72019 0.0487295 0.0482122 4.47871e-06 0.0484673 8.53193e-07 272.792 
-0.35 -0.13 -1.57277 3.0244 0.0486713 0.048142 -2.79237e-05 0.0484113 8.52468e-07 272.709 
-0.33 -0.13 -1.85377 2.6327 0.0487297 0.0481713 2.18204e-05 0.048411 8.53063e-07 272.517 
-0.37 -0.11 -0.941281 3.1857 0.0487694 0.0481782 -4.77861e-06 0.0485212 8.53628e-07 272.956 
-0.35 -0.11 -1.48968 3.19598 0.0487473 0.0482118 8.35033e-06 0.048478 8.53078e-07 272.889 
-0.33 -0.11 -1.51447 2.82462 0.0486761 0.0480615 -2.29459e-05 0.0483691 8.5234e-07 272.512 
-0.35 -0.09 -1.35881 3.49802 0.0487341 0.0482251 3.39727e-05 0.0484788 8.51573e-07 273.376 
-0.49 -0.13 -0.0493999 1.27606 0.0486534 0.0483157 -0.000206456 0.0484869 8.53249e-07 272.884 
-0.47 -0.13 -0.131687 1.96581 0.0486427 0.0481885 -0.000222823 0.048401 8.52427e-07 272.664 
-0.45 -0.13 -0.00132523 2.6898 0.0486524 0.048255 -0.000135523 0.0484606 8.53289e-07 272.724 
-0.49 -0.11 -0.0312702 1.32923 0.0487076 0.0482825 -0.000202289 0.048488 8.53508e-07 272.808 
-0.43 -0.13 -0.274302 2.53424 0.0486904 0.0481176 -9.49243e-05 0.0484269 8.5217e-07 272.892 
-0.47 -0.11 -0.412799 2.24308 0.0486972 0.048241 -0.000194624 0.0484841 8.53676e-07 272.732 
-0.41 -0.13 -0.818557 2.38293 0.0487529 0.0482766 -9.35947e-05 0.0485215 8.52843e-07 273.209 
-0.45 -0.11 -0.481298 2.49162 0.0487287 0.0481482 -0.000179678 0.0484648 8.52456e-07 273.014 
-0.49 -0.09 -0.330144 1.74295 0.0485516 0.0482936 -0.000187524 0.0484387 8.52257e-07 272.931 
-0.39 -0.13 -1.08393 2.72221 0.0487526 0.0482263 -1.80139e-05 0.0485289 8.53284e-07 273.11 
-0.43 -0.11 -0.386775 2.79991 0.0487556 0.0481303 -0.000119845 0.0484725 8.53258e-07 272.801 
-0.47 -0.09 -0.490525 2.52564 0.0485711 0.0482339 -0.000191115 0.0484465 8.53575e-07 272.553 
-0.41 -0.11 -0.460138 2.90751 0.0487294 0.0482209 -6.03146e-05 0.0484872 8.53219e-07 272.896 
-0.45 -0.09 -0.551075 2.36118 0.0485324 0.0480796 -0.000181352 0.0482829 8.50946e-07 272.472 
-0.39 -0.11 -0.802383 2.74925 0.0487026 0.0481617 -4.28795e-05 0.0485016 8.52519e-07 273.201 
-0.43 -0.09 -0.65818 2.77387 0.0485411 0.0480681 -0.00015173 0.0483335 8.5109e-07 272.711 
-0.41 -0.09 -0.77051 3.1436 0.0486179 0.0481301 -0.000110701 0.0484111 8.52033e-07 272.847 
-0.39 -0.09 -0.787734 2.97992 0.0486815 0.0482263 -3.11042e-05 0.0484666 8.53012e-07 272.846 
-0.37 -0.09 -1.3381 3.40627 0.0486085 0.0480777 -4.3258e-05 0.0483707 8.5076e-07 273.027 
-0.35 -0.03 -1.82412 3.76057 0.048702 0.0481636 -6.97724e-05 0.0483883 8.51748e-07 272.81 
-0.37 -0.07 -1.44002 3.53584 0.0486895 0.048053 -3.38865e-05 0.0483922 8.51308e-07 272.973 
-0.41 -0.05 -1.21801 3.44754 0.0486794 0.0480584 -0.000110754 0.0483528 8.51018e-07 272.844 
-0.45 -0.03 -0.791858 3.30357 0.0485677 0.0479712 -0.000217734 0.0482969 8.50887e-07 272.57 
-0.35 -0.07 -1.61731 3.55763 0.0486878 0.0481513 -2.91878e-05 0.0484506 8.52247e-07 273.001 
-0.39 -0.05 -1.40877 3.40243 0.0486673 0.0481178 -9.91621e-05 0.048363 8.51198e-07 272.843 
-0.43 -0.03 -0.835428 3.66155 0.0485745 0.0480236 -0.0002088 0.0483025 8.50321e-07 272.783 
-0.33 -0.07 -1.69435 3.55636 0.0487722 0.0481074 7.00743e-06 0.0484474 8.51799e-07 273.127 
-0.37 -0.05 -1.61696 3.81536 0.0486897 0.048063 -7.2075e-05 0.0483462 8.505e-07 272.972 
-0.41 -0.03 -0.89379 3.63179 0.0486234 0.0480425 -0.000156387 0.0482828 8.49739e-07 272.858 
-0.35 -0.05 -1.58865 3.5808 0.0486325 0.0481306 -6.61889e-05 0.0483648 8.51591e-07 272.728 
-0.39 -0.03 -1.44546 3.89998 0.048653 0.0480824 -0.000113219 0.0483583 8.49975e-07 273.209 
-0.33 -0.05 -2.00113 3.8133 0.0486313 0.0480716 -3.48422e-05 0.0483469 8.52126e-07 272.455 
-0.37 -0.03 -1.53687 3.8475 0.0486787 0.0479911 -4.03893e-05 0.0482715 8.50393e-07 272.585 
-0.33 -0.03 -1.89678 4.1197 0.0486644 0.0480023 2.35199e-05 0.0483741 8.50928e-07 272.992 
-0.49 -0.07 0.0843597 2.12772 0.0485482 0.0483065 -0.000192596 0.0484298 8.52011e-07 272.959 
-0.47 -0.07 -0.0905701 2.44111 0.0485651 0.0482211 -0.000198814 0.0484566 8.52853e-07 272.841 
-0.45 -0.07 -0.461416 2.64338 0.0486577 0.0480383 -0.000178976 0.0483593 8.51647e-07 272.678 
-0.49 -0.05 -0.237302 2.18583 0.0484892 0.0482277 -0.000271295 0.0483624 8.51579e-07 272.717 
-0.43 -0.07 -0.892199 3.29234 0.0486049 0.0480962 -0.000136246 0.0483616 8.5049e-07 273.062 
-0.47 -0.05 -0.490077 2.60859 0.0485928 0.0482695 -0.000260763 0.0484225 8.52274e-07 272.834 
-0.41 -0.07 -1.14706 3.1675 0.0485846 0.048093 -0.000126183 0.0483159 8.4995e-07 272.978 
-0.45 -0.05 -0.516272 2.98534 0.0485697 0.0479425 -0.000205647 0.0482695 8.49234e-07 272.945 
-0.49 -0.03 -0.122869 2.5693 0.0485706 0.0482059 -0.00026274 0.0483659 8.51202e-07 272.858 
-0.39 -0.07 -1.43639 3.21616 0.0486172 0.0481261 -8.50867e-05 0.0483679 8.52083e-07 272.587 
-0.43 -0.05 -0.761505 3.56329 0.0486832 0.0481135 -0.000170437 0.0484406 8.5176e-07 273.1 
-0.47 -0.03 -0.357196 2.715 0.0485624 0.0481926 -0.000236403 0.0483706 8.51308e-07 272.851 
-0.27 -0.07 -2.57173 3.77735 0.0486438 0.0481426 7.33097e-05 0.0483768 8.52529e-07 272.495 
-0.31 -0.05 -2.11318 3.98561 0.0486341 0.0479927 5.35333e-05 0.0483316 8.51082e-07 272.703 
-0.27 -0.09 -2.53984 3.58762 0.0487445 0.0481793 3.51864e-05 0.0484559 8.53432e-07 272.651 
-0.31 -0.07 -2.30639 3.63839 0.0487704 0.0480809 2.53333e-05 0.0484574 8.529e-07 272.83 
-0.29 -0.07 -2.5443 3.88271 0.0487005 0.048108 7.69593e-05 0.048382 8.51778e-07 272.764 
-0.25 -0.07 -2.53718 3.13041 0.0486505 0.0481009 9.17442e-05 0.0483624 8.50853e-07 272.95 
-0.29 -0.05 -2.16797 3.84684 0.0486614 0.0481012 7.68678e-05 0.0483382 8.5182e-07 272.504 
-0.27 -0.05 -2.22725 3.8751 0.0486132 0.048115 8.48807e-05 0.0483516 8.5155e-07 272.666 
-0.31 -0.03 -2.35164 4.19658 0.0486334 0.0479637 1.75993e-05 0.0482775 8.50347e-07 272.633 
-0.25 -0.05 -2.29681 3.26633 0.0486379 0.0481232 7.6778e-05 0.048381 8.52155e-07 272.638 
-0.29 -0.03 -2.34171 4.0475 0.0486497 0.0480689 4.07557e-05 0.0483638 8.50804e-07 272.974 
-0.27 -0.03 -2.42635 3.74749 0.0486702 0.0480996 9.70085e-05 0.0484007 8.5291e-07 272.507 
-0.25 -0.03 -2.24396 3.41463 0.0486068 0.0481568 9.33292e-05 0.048377 8.52485e-07 272.51 
-0.27 -0.01 -1.98589 3.99528 0.0485186 0.0480493 0.000103688 0.0483493 8.50976e-07 272.837 
-0.31 -0.25 -1.66751 1.6574 0.0489012 0.0483208 9.11732e-05 0.0485954 8.54917e-07 272.961 
-0.29 -0.25 -2.15134 1.92467 0.0489641 0.0482999 0.000110405 0.048625 8.55247e-07 273.022 
-0.27 -0.25 -1.89093 1.75327 0.0489052 0.0482775 0.000128208 0.0486385 8.54664e-07 273.284 
-0.29 -0.11 -2.23442 2.98235 0.0487378 0.0481485 4.81891e-05 0.048461 8.54599e-07 272.308 
-0.33 -0.09 -1.76217 3.00892 0.0487401 0.0480938 4.34677e-05 0.0484189 8.51976e-07 272.909 
-0.27 -0.11 -2.52715 3.31955 0.0487235 0.0481725 6.77128e-05 0.0484516 8.53188e-07 272.706 
-0.31 -0.09 -1.92746 3.47584 0.0486668 0.0480664 2.93904e-06 0.0484052 8.50662e-07 273.253 
-0.29 -0.09 -2.15838 3.58343 0.0486955 0.0481291 2.53734e-05 0.0484027 8.52239e-07 272.734 
-0.33 -0.23 -1.52071 1.72233 0.0488645 0.0483063 3.58277e-05 0.0486499 8.5653e-07 272.753 
-0.31 -0.23 -1.76708 2.10437 0.0488782 0.0482752 1.33045e-06 0.04862 8.55996e-07 272.756 
-0.29 -0.23 -1.72417 1.98827 0.0488435 0.0482756 0.000117746 0.0486127 8.55602e-07 272.84 
-0.27 -0.23 -2.10028 1.68282 0.0488717 0.0482764 0.000136371 0.0486056 8.55561e-07 272.813 
-0.31 -0.21 -1.65718 2.28618 0.0487873 0.0481664 5.02333e-05 0.0485259 8.54965e-07 272.556 
-0.29 -0.21 -2.05075 2.12789 0.0488265 0.0482764 8.3009e-05 0.0485933 8.56261e-07 272.521 
-0.27 -0.21 -1.88058 1.84488 0.0488758 0.0483083 0.000129493 0.0486103 8.55333e-07 272.913 
-0.31 -0.19 -1.5495 2.37945 0.0487872 0.0482161 7.36646e-05 0.0485001 8.5397e-07 272.728 
-0.25 -0.21 -2.01054 1.45834 0.0488993 0.0483115 0.000115402 0.0486204 8.55234e-07 273.001 
-0.29 -0.19 -1.47535 2.42335 0.0487417 0.0482279 0.000101426 0.0484666 8.54727e-07 272.299 
-0.27 -0.19 -1.73445 1.75539 0.0487204 0.0482367 0.000134071 0.0484686 8.52201e-07 273.117 
-0.31 -0.17 -1.50162 2.22238 0.0487524 0.0481875 4.58554e-05 0.0484777 8.53326e-07 272.808 
-0.25 -0.19 -1.99389 2.05791 0.0487247 0.0482956 0.000106811 0.0484691 8.53282e-07 272.774 
-0.29 -0.17 -1.57315 2.40066 0.0488208 0.0482153 6.32901e-05 0.0485555 8.54113e-07 272.994 
-0.27 -0.17 -2.12603 2.64739 0.0487546 0.0482247 0.000109821 0.0485133 8.54078e-07 272.768 
-0.31 -0.15 -1.78795 2.53929 0.0487766 0.0481902 4.85597e-05 0.0485021 8.54159e-07 272.679 
-0.25 -0.17 -2.83051 2.24178 0.0487897 0.0483167 0.000127854 0.0485305 8.52987e-07 273.214 
-0.29 -0.15 -1.93843 2.59047 0.048715 0.0481072 0.000135814 0.0484437 8.53818e-07 272.46 
-0.27 -0.15 -2.17339 3.0471 0.0487521 0.0482936 0.000100392 0.048534 8.55017e-07 272.585 
-0.31 -0.13 -1.93541 2.78965 0.0487272 0.048119 6.84543e-05 0.0484421 8.5273e-07 272.798 
-0.25 -0.15 -2.35093 2.588 0.0488078 0.0483039 9.75317e-05 0.0485299 8.53851e-07 272.934 
-0.29 -0.13 -2.13669 2.83608 0.0487971 0.0481161 4.86859e-05 0.0484923 8.54065e-07 272.654 
-0.27 -0.13 -2.31776 3.1564 0.0488068 0.0482586 6.65419e-05 0.0485769 8.55537e-07 272.66 
-0.31 -0.11 -1.79888 3.29492 0.0487617 0.048144 4.10429e-05 0.0484609 8.52585e-07 272.951 
-0.25 -0.13 -2.51398 2.86097 0.0487907 0.0482355 0.00013703 0.0485009 8.53777e-07 272.794 
-0.25 -0.25 -1.79788 1.52996 0.0489342 0.0483574 0.000151454 0.0486679 8.56231e-07 272.949 
-0.25 -0.23 -2.18714 1.71485 0.0488386 0.0483258 9.05474e-05 0.0485818 8.55354e-07 272.746 
-0.25 -0.11 -2.59336 3.01643 0.0487885 0.0482071 7.33676e-05 0.0484814 8.52967e-07 272.944 
-0.25 -0.09 -2.79632 3.0312 0.0486974 0.0481741 0.000144726 0.0484502 8.5136e-07 273.283 
-0.25 -0.01 -2.46596 3.53187 0.0485821 0.0481341 0.000129888 0.0483538 8.51654e-07 272.645 
-0.23 -0.49 -0.705847 -0.00104733 0.0486996 0.048576 0.00014191 0.0486275 8.55188e-07 273.055 
-0.21 -0.49 -0.704499 -0.0624476 0.0487349 0.0485055 0.000140829 0.0486025 8.53985e-07 273.3 
-0.19 -0.49 -0.826961 0.0895557 0.0487276 0.0486184 0.000196435 0.0486546 8.55296e-07 273.173 
-0.23 -0.47 -0.77109 -0.090957 0.0487605 0.0485697 9.03191e-05 0.0486959 8.56356e-07 273.067 
-0.17 -0.49 -0.918025 0.15149 0.0486907 0.0485854 0.000130013 0.0486397 8.55372e-07 273.065 
-0.21 -0.47 -1.13209 0.386882 0.0487555 0.0485062 0.000143089 0.0486251 8.55094e-07 273.072 
-0.15 -0.49 -0.950764 0.00685014 0.0486806 0.0486184 0.000220841 0.0486194 8.55906e-07 272.781 