ITEM: TIMESTEP
1063000
ITEM: NUMBER OF CELLS
2500
ITEM: BOX BOUNDS ss ss pp
-0.5 0.5
-0.5 0.5
-0.5 0.5
ITEM: CELLS xc yc f_U[*] f_V[*] f_Tau[1] f_Tau[2] f_Tau[3] f_Press[*] f_Mrho[*] f_Ttra[*] 
-0.49 -0.49 -0.0502031 -0.00873366 0.0487038 0.0486211 -8.7447e-06 0.0487131 8.56215e-07 273.208 
-0.47 -0.49 -0.0566975 0.0437867 0.0486769 0.0486163 1.51238e-05 0.0486618 8.55601e-07 273.116 
-0.45 -0.49 -0.115568 0.00146512 0.0486607 0.0485506 3.97698e-05 0.0486107 8.55758e-07 272.779 
-0.49 -0.47 0.0318934 -0.0199926 0.0486917 0.0486057 -1.21232e-05 0.0486467 8.55195e-07 273.161 
-0.43 -0.49 -0.197638 0.066011 0.0486355 0.0485273 -7.29682e-06 0.048581 8.55016e-07 272.849 
-0.47 -0.47 0.0306069 0.0624843 0.048715 0.0485949 -3.21527e-06 0.0486764 8.55417e-07 273.257 
-0.41 -0.49 -0.243897 -0.00750247 0.0486696 0.0485325 3.09487e-05 0.0486057 8.55372e-07 272.874 
-0.45 -0.47 -0.0705057 0.173452 0.0487285 0.0485527 4.22751e-05 0.0486465 8.55638e-07 273.018 
-0.49 -0.45 -0.0308074 -0.010013 0.0487249 0.0486049 -3.89161e-05 0.0486615 8.55402e-07 273.178 
-0.39 -0.49 -0.255066 0.0352734 0.0486815 0.0484557 2.93913e-05 0.0485706 8.54816e-07 272.854 
-0.43 -0.47 -0.101105 0.0154645 0.0487188 0.048552 1.50891e-05 0.0486355 8.55196e-07 273.097 
-0.47 -0.45 -0.14973 0.212051 0.0487254 0.0485462 7.99118e-06 0.0486439 8.55453e-07 273.063 
-0.37 -0.49 -0.404266 0.0887598 0.0486969 0.0485148 3.88025e-05 0.0486036 8.55506e-07 272.82 
-0.41 -0.47 -0.315566 0.235191 0.0486876 0.0484931 3.98062e-05 0.0485937 8.55136e-07 272.882 
-0.45 -0.45 -0.288673 0.101205 0.0487586 0.0485593 1.01335e-05 0.0486788 8.56222e-07 273.013 
-0.49 -0.43 -0.072918 0.0907756 0.0487117 0.0485727 -4.60521e-05 0.0486676 8.56248e-07 272.942 
-0.35 -0.49 -0.484481 -6.19479e-05 0.0486726 0.0484779 6.80183e-05 0.0485682 8.54731e-07 272.868 
-0.39 -0.47 -0.530513 0.151227 0.0486836 0.0484588 3.86758e-05 0.0485845 8.54783e-07 272.943 
-0.43 -0.45 -0.327829 0.230286 0.0487728 0.04855 4.82774e-05 0.0486579 8.55038e-07 273.274 
-0.47 -0.43 -0.14425 0.278775 0.0487175 0.0485163 -1.45068e-05 0.0486438 8.55639e-07 273.003 
-0.37 -0.47 -0.535491 0.164006 0.0486666 0.0484723 4.51051e-05 0.048562 8.54257e-07 272.985 
-0.41 -0.45 -0.309553 0.305814 0.0487274 0.048467 3.14847e-05 0.0486002 8.54834e-07 273.015 
-0.45 -0.43 -0.257879 0.337848 0.0487335 0.0485515 -7.16759e-06 0.0486426 8.55585e-07 273.013 
-0.49 -0.41 -0.0139696 0.341999 0.0487447 0.0485341 -3.79143e-06 0.048624 8.55532e-07 272.926 
-0.35 -0.47 -0.678062 0.0511011 0.0486997 0.0484672 8.28085e-05 0.0485947 8.54937e-07 272.952 
-0.39 -0.45 -0.404018 0.232077 0.0487546 0.0484529 5.35552e-05 0.0485878 8.54651e-07 273.004 
-0.43 -0.43 -0.366217 0.250899 0.0487511 0.0485054 2.35366e-05 0.0486409 8.55714e-07 272.963 
-0.47 -0.41 -0.313181 0.335627 0.0487486 0.0485458 -2.63294e-05 0.0486662 8.5628e-07 272.924 
-0.37 -0.45 -0.597565 0.325778 0.0487211 0.048487 5.33411e-05 0.0485913 8.54834e-07 272.965 
-0.41 -0.43 -0.528446 0.331576 0.0488048 0.0485018 3.5496e-05 0.048656 8.55659e-07 273.065 
-0.45 -0.41 -0.333052 0.344753 0.0487605 0.0485114 -1.13901e-05 0.0486532 8.55805e-07 273.003 
-0.49 -0.39 -0.0189307 0.349761 0.0487051 0.0485281 -1.16539e-05 0.048614 8.55612e-07 272.844 
-0.35 -0.45 -0.654976 0.138964 0.0487161 0.048443 5.46419e-05 0.0485513 8.54813e-07 272.747 
-0.39 -0.43 -0.548037 0.380479 0.0487693 0.0484068 3.58348e-05 0.0485726 8.54354e-07 273.013 
-0.43 -0.41 -0.471198 0.39231 0.0487417 0.0485403 9.1257e-06 0.0486596 8.55728e-07 273.063 
-0.47 -0.39 0.0281179 0.492155 0.0487387 0.0485584 -3.41575e-05 0.0486429 8.56276e-07 272.795 
-0.37 -0.43 -0.621914 0.362376 0.048813 0.0484698 6.82979e-05 0.0486119 8.55305e-07 272.93 
-0.41 -0.41 -0.47891 0.353756 0.0487105 0.0484436 2.57826e-05 0.0485723 8.54723e-07 272.894 
-0.45 -0.39 -0.0634524 0.511607 0.0487458 0.0484503 -1.65994e-05 0.0486223 8.55836e-07 272.819 
-0.35 -0.43 -0.643036 0.162034 0.0488153 0.0484821 3.50512e-05 0.0486177 8.56238e-07 272.666 
-0.39 -0.41 -0.390277 0.339625 0.048747 0.0484324 2.08685e-05 0.0485821 8.55017e-07 272.855 
-0.43 -0.39 -0.179784 0.485144 0.0487882 0.0485387 2.7031e-05 0.0486702 8.56097e-07 273.005 
-0.37 -0.41 -0.405671 0.515214 0.048763 0.0484381 3.92368e-05 0.0485762 8.54908e-07 272.857 
-0.41 -0.39 -0.302757 0.458032 0.048768 0.0484573 -4.39098e-07 0.0486157 8.55287e-07 272.957 
-0.35 -0.41 -0.768719 0.366247 0.0487652 0.0484971 3.44218e-05 0.0485842 8.55458e-07 272.726 
-0.39 -0.39 -0.55169 0.325205 0.0487889 0.0484264 2.29453e-05 0.0486099 8.55766e-07 272.772 
-0.37 -0.39 -0.657022 0.583189 0.0487927 0.0484377 2.6509e-05 0.0486055 8.55056e-07 272.974 
-0.35 -0.39 -0.659955 0.644793 0.0487899 0.0484642 7.46638e-05 0.0486102 8.55819e-07 272.757 
-0.37 -0.37 -0.781332 0.521757 0.0488099 0.0484126 2.21056e-05 0.0485988 8.54603e-07 273.081 
-0.33 -0.49 -0.538678 0.010977 0.0486444 0.0484604 8.2037e-05 0.0485705 8.54483e-07 272.96 
-0.33 -0.47 -0.651162 0.0483583 0.0486925 0.0484929 7.61783e-05 0.0485928 8.55e-07 272.92 
-0.33 -0.43 -0.722062 0.102161 0.0487723 0.0484875 4.53593e-05 0.0486133 8.55891e-07 272.752 
-0.49 -0.37 -0.0597727 0.333291 0.0487465 0.0485451 -5.40378e-05 0.0486404 8.55685e-07 272.969 
-0.47 -0.37 -0.116911 0.591757 0.0487769 0.0485513 -5.4559e-05 0.0486671 8.55787e-07 273.086 
-0.45 -0.37 -0.320064 0.594356 0.0487572 0.0484509 -2.10203e-05 0.0486147 8.54823e-07 273.1 
-0.49 -0.35 0.0303427 0.520591 0.0488009 0.048577 -5.72082e-05 0.0486684 8.56559e-07 272.848 
-0.43 -0.37 -0.492669 0.682306 0.0487573 0.0485053 -6.57083e-06 0.0486449 8.55225e-07 273.141 
-0.47 -0.35 -0.167515 0.690086 0.048783 0.0485101 -1.89974e-05 0.0486534 8.55637e-07 273.058 
-0.45 -0.35 -0.244726 0.79687 0.048751 0.0484269 -1.20821e-06 0.0486248 8.55093e-07 273.071 
-0.49 -0.33 -0.119452 0.551901 0.0487733 0.0485093 -6.16934e-05 0.048649 8.56559e-07 272.739 
-0.39 -0.37 -0.676493 0.541889 0.0487708 0.0483886 1.93727e-06 0.0485766 8.54996e-07 272.831 
-0.43 -0.35 -0.192683 0.572181 0.0487838 0.048487 -4.02463e-05 0.0486534 8.55285e-07 273.17 
-0.47 -0.33 -0.0610378 0.773908 0.0487917 0.0484883 -1.94981e-05 0.0486217 8.55674e-07 272.868 
-0.41 -0.35 -0.428519 0.797254 0.0487719 0.0484435 3.25356e-05 0.048604 8.55332e-07 272.877 
-0.45 -0.33 -0.148342 0.855882 0.0488378 0.0484469 -3.33167e-05 0.0486348 8.5542e-07 273.022 
-0.49 -0.31 -0.0852354 0.7071 0.0487421 0.0484794 -6.77761e-05 0.0486026 8.55386e-07 272.852 
-0.39 -0.35 -0.622055 0.736856 0.0487853 0.0484281 -6.24036e-06 0.0485877 8.54665e-07 272.998 
-0.43 -0.33 -0.424986 0.810186 0.0488406 0.0484641 -1.49924e-05 0.048636 8.54955e-07 273.177 
-0.47 -0.31 -0.197866 0.859762 0.0487551 0.0484733 -6.54503e-05 0.0485944 8.54996e-07 272.931 
-0.37 -0.35 -0.875237 0.785417 0.0487301 0.0483553 2.8838e-05 0.0485398 8.54266e-07 272.857 
-0.41 -0.33 -0.542685 0.863191 0.0488271 0.0484286 -4.2316e-06 0.0486299 8.55113e-07 273.093 
-0.45 -0.31 -0.20432 0.91316 0.048785 0.0484552 -7.1405e-05 0.0486119 8.55232e-07 272.953 
-0.49 -0.29 -0.0449763 0.888214 0.048745 0.0484649 -9.06327e-05 0.0485958 8.55319e-07 272.835 
-0.35 -0.35 -1.07732 0.925732 0.0487259 0.0483838 5.68721e-05 0.0485632 8.54326e-07 272.97 
-0.39 -0.33 -0.667483 0.982878 0.0488149 0.0484097 4.66287e-05 0.0485943 8.55374e-07 272.809 
-0.43 -0.31 -0.374736 1.03567 0.0487812 0.0484385 -4.12679e-05 0.0486177 8.55565e-07 272.88 
-0.47 -0.29 -0.228057 0.898177 0.0487795 0.048487 -8.19717e-05 0.0486381 8.55984e-07 272.861 
-0.37 -0.33 -0.815549 1.06217 0.0487999 0.0483475 4.80828e-05 0.0485753 8.54553e-07 272.965 
-0.41 -0.31 -0.677417 0.961855 0.0488219 0.0483806 1.7885e-05 0.0486212 8.55349e-07 272.969 
-0.45 -0.29 -0.310352 0.99422 0.0487715 0.0484447 -6.07657e-05 0.0486163 8.55429e-07 272.916 
-0.49 -0.27 -0.0879003 1.04411 0.0488275 0.048442 -9.28822e-05 0.0486572 8.56462e-07 272.816 
-0.35 -0.33 -0.9595 0.974933 0.0488366 0.0484187 4.75722e-06 0.0486474 8.55336e-07 273.12 
-0.39 -0.31 -0.683481 1.0633 0.0488595 0.0484087 2.13152e-05 0.0486456 8.55472e-07 273.067 
-0.43 -0.29 -0.33193 1.20639 0.0487644 0.0483739 -5.2541e-05 0.0485586 8.54945e-07 272.746 
-0.47 -0.27 -0.163161 0.960721 0.0488309 0.0484612 -8.05198e-05 0.048678 8.56295e-07 272.986 
-0.37 -0.31 -0.777039 1.09218 0.0488858 0.0483835 1.1168e-05 0.0486336 8.55331e-07 273.044 
-0.41 -0.29 -0.396178 1.14326 0.0488007 0.0483475 -3.19468e-05 0.0485882 8.54715e-07 272.986 
-0.45 -0.27 -0.221651 1.0743 0.0488354 0.0484056 -6.25179e-05 0.0486175 8.56182e-07 272.682 
-0.35 -0.31 -0.883212 1.26077 0.0488797 0.0484011 4.36852e-05 0.0486426 8.55412e-07 273.068 
-0.39 -0.29 -0.639305 1.2369 0.04882 0.0483933 9.96817e-06 0.0485952 8.54531e-07 273.084 
-0.43 -0.27 -0.405205 1.31536 0.0488463 0.0483715 -3.15617e-05 0.0486244 8.55662e-07 272.886 
-0.37 -0.29 -0.80355 1.08244 0.0488167 0.0483951 1.56809e-05 0.0486256 8.5447e-07 273.274 
-0.41 -0.27 -0.564753 1.33774 0.0488123 0.0483306 -4.05858e-05 0.0485501 8.55204e-07 272.616 
-0.35 -0.29 -1.04753 1.47585 0.0488099 0.0483631 4.69258e-05 0.0485768 8.54732e-07 272.916 
-0.39 -0.27 -0.822143 1.40714 0.0488197 0.0483515 -1.73757e-05 0.0486042 8.55126e-07 272.944 
-0.33 -0.29 -1.17247 1.40762 0.0488552 0.0483952 4.28919e-05 0.0486214 8.54952e-07 273.096 
-0.37 -0.27 -1.04832 1.34872 0.0488435 0.0483683 2.50399e-05 0.0486114 8.55031e-07 273.015 
-0.35 -0.27 -1.21628 1.55131 0.0488419 0.0483746 1.88233e-05 0.0486059 8.55612e-07 272.799 
-0.33 -0.27 -1.34143 1.57264 0.0488338 0.0483413 5.87425e-05 0.0485609 8.54537e-07 272.889 
-0.41 -0.37 -0.494236 0.630916 0.0488027 0.0484819 7.23896e-06 0.048649 8.55959e-07 272.93 
-0.35 -0.37 -0.867711 0.852973 0.0488161 0.0484245 5.54881e-05 0.0486088 8.55635e-07 272.808 
-0.33 -0.37 -0.964689 0.586158 0.0487955 0.0484483 5.84043e-05 0.0486172 8.5512e-07 273.019 
-0.33 -0.35 -1.29115 0.74292 0.0487843 0.0484492 6.71507e-05 0.0486376 8.55168e-07 273.118 
-0.33 -0.31 -1.21285 1.05644 0.0488402 0.0483805 6.60112e-05 0.0486115 8.54904e-07 273.056 
-0.35 -0.25 -1.28894 1.70598 0.0488356 0.0483474 2.37764e-05 0.0486057 8.55379e-07 272.872 
-0.31 -0.49 -0.502494 0.042601 0.0486945 0.0485689 8.73392e-05 0.048644 8.55046e-07 273.193 
-0.29 -0.49 -0.602369 0.0405626 0.0486964 0.0485046 0.000105965 0.0486136 8.5471e-07 273.13 
-0.27 -0.49 -0.719193 -0.0388311 0.0486924 0.0484778 0.000124172 0.0485885 8.55172e-07 272.842 
-0.31 -0.47 -0.698267 -0.0163153 0.048698 0.0485416 7.91803e-05 0.0486207 8.54478e-07 273.244 
-0.29 -0.47 -0.646019 0.121258 0.048705 0.0484522 0.00010815 0.0485967 8.5431e-07 273.163 
-0.27 -0.47 -0.626741 0.0656135 0.0487145 0.0484821 0.000111559 0.0485757 8.54415e-07 273.011 
-0.31 -0.45 -0.718173 0.160249 0.0487658 0.0485025 6.76132e-05 0.0486277 8.55285e-07 273.026 
-0.29 -0.45 -0.749378 0.1119 0.0487353 0.0484622 0.000120332 0.0486074 8.54725e-07 273.09 
-0.27 -0.45 -1.01814 0.264277 0.0487392 0.0484784 0.000122669 0.048585 8.54634e-07 272.994 
-0.31 -0.43 -1.0419 0.205697 0.0487494 0.048432 8.46352e-05 0.0485977 8.55589e-07 272.76 
-0.29 -0.43 -1.26707 0.346365 0.0487724 0.0484486 0.000118338 0.0486149 8.55373e-07 272.926 
-0.27 -0.43 -1.25329 0.368334 0.0487844 0.0484889 0.0001134 0.0486231 8.54668e-07 273.197 
-0.31 -0.41 -1.14883 0.416848 0.0487664 0.0484074 0.00011012 0.0485899 8.54819e-07 272.962 
-0.25 -0.43 -1.33725 0.300809 0.0487462 0.0484752 0.000115595 0.0486053 8.54156e-07 273.26 
-0.29 -0.41 -1.27184 0.382124 0.0487755 0.0484518 8.8123e-05 0.0486134 8.55058e-07 273.017 
-0.27 -0.41 -1.32556 0.319366 0.0487817 0.0484895 0.000128249 0.0486353 8.55601e-07 272.967 
-0.31 -0.39 -1.01048 0.635285 0.0488011 0.0484164 7.62047e-05 0.0486135 8.54901e-07 273.068 
-0.25 -0.41 -1.32164 0.350384 0.0487787 0.048467 0.000120722 0.0486322 8.55122e-07 273.103 
-0.29 -0.39 -1.09728 0.345074 0.048822 0.0483968 9.10807e-05 0.0486171 8.55408e-07 272.927 
-0.27 -0.39 -1.27405 0.604042 0.0488326 0.0484628 0.000132083 0.048689 8.56304e-07 273.044 
-0.31 -0.37 -1.13639 0.726395 0.04878 0.0484042 6.97902e-05 0.0486005 8.54676e-07 273.067 
-0.25 -0.39 -1.54466 0.538788 0.0488163 0.0485094 0.000146288 0.0486867 8.5614e-07 273.084 
-0.29 -0.37 -1.2638 0.584182 0.0487801 0.0483679 6.97819e-05 0.0485795 8.55226e-07 272.774 
-0.27 -0.37 -1.42468 0.66255 0.0488187 0.0483995 9.29013e-05 0.0486224 8.5531e-07 272.988 
-0.31 -0.35 -1.31829 0.748246 0.0488411 0.0484225 4.42863e-05 0.0486483 8.55439e-07 273.092 
-0.29 -0.35 -1.38547 0.815949 0.0488416 0.0483567 7.07632e-05 0.0486223 8.55623e-07 272.887 
-0.27 -0.35 -1.56034 0.939076 0.0488452 0.0483958 8.32322e-05 0.048619 8.55448e-07 272.924 
-0.31 -0.33 -1.19735 0.898521 0.048816 0.0483967 5.29438e-05 0.048593 8.54837e-07 272.974 
-0.29 -0.33 -1.58727 1.02526 0.0487955 0.0483464 6.83019e-05 0.0485788 8.5516e-07 272.791 
-0.27 -0.33 -1.66995 0.999612 0.0487851 0.0483596 0.000110194 0.0485717 8.54864e-07 272.846 
-0.31 -0.31 -1.38729 1.02683 0.0488295 0.0483804 7.02377e-05 0.0486069 8.54623e-07 273.12 
-0.29 -0.31 -1.48021 1.30807 0.0488245 0.0483514 8.59877e-05 0.0486051 8.55109e-07 272.955 
-0.27 -0.31 -1.78186 1.07743 0.0488089 0.0483324 8.12426e-05 0.0485555 8.54393e-07 272.905 
-0.31 -0.29 -1.51139 1.32358 0.0488213 0.0483396 6.92886e-05 0.0485743 8.54067e-07 273.114 
-0.25 -0.31 -1.83731 1.12764 0.0488117 0.0484502 0.000111481 0.0486254 8.54871e-07 273.145 
-0.29 -0.29 -1.81078 1.33378 0.0488331 0.048357 7.71027e-05 0.0485988 8.5414e-07 273.229 
-0.27 -0.29 -1.79046 1.2503 0.0488601 0.0483337 0.000110245 0.0485786 8.54599e-07 272.969 
-0.31 -0.27 -1.48892 1.54701 0.0488437 0.0483536 6.51783e-05 0.0486164 8.55432e-07 272.915 
-0.25 -0.29 -1.95165 1.19183 0.0488616 0.0484381 8.86438e-05 0.0486326 8.55246e-07 273.066 
-0.29 -0.27 -1.55225 1.52937 0.04881 0.0483008 0.000108041 0.0485573 8.5428e-07 272.951 
-0.27 -0.27 -1.81468 1.49041 0.0487977 0.0483518 8.56286e-05 0.0485714 8.54342e-07 273.01 
-0.25 -0.27 -2.06428 1.28861 0.0488186 0.0483874 0.000115064 0.0486065 8.55153e-07 272.948 
-0.33 -0.45 -0.700372 -0.0515551 0.0487633 0.048507 4.57861e-05 0.0486046 8.55328e-07 272.882 
-0.33 -0.41 -1.11408 0.371601 0.0487879 0.0484574 8.34178e-05 0.0485963 8.55554e-07 272.763 
-0.33 -0.39 -0.818783 0.484049 0.0487733 0.048426 7.31577e-05 0.0485914 8.55144e-07 272.867 
-0.33 -0.33 -1.00545 0.884155 0.0488264 0.0484221 1.13984e-05 0.0486171 8.54577e-07 273.192 
-0.25 -0.49 -0.706963 0.0492118 0.0486526 0.0484878 0.00012524 0.0486052 8.55614e-07 272.794 
-0.25 -0.47 -0.789709 0.110648 0.0487512 0.0485084 0.000105454 0.0486263 8.55464e-07 272.961 
-0.25 -0.45 -1.11054 0.114096 0.0487464 0.0484904 8.53236e-05 0.0486099 8.55162e-07 272.965 
-0.25 -0.37 -1.5844 0.704633 0.048864 0.0485226 0.000136366 0.0486908 8.55907e-07 273.181 
-0.25 -0.35 -1.79856 0.822575 0.0488215 0.0484447 0.000109782 0.0486384 8.55934e-07 272.878 
-0.25 -0.33 -1.69082 1.05818 0.0487829 0.0484532 0.000103828 0.0486317 8.55594e-07 272.95 
-0.49 -0.25 -0.0504109 1.19443 0.0487705 0.0484427 -0.000116067 0.0486601 8.55797e-07 273.044 
-0.47 -0.25 -0.24942 1.09223 0.0488086 0.0484162 -9.20345e-05 0.0486172 8.55631e-07 272.856 
-0.45 -0.25 -0.349204 1.10023 0.0487799 0.0483928 -5.48581e-05 0.0486179 8.55706e-07 272.836 
-0.49 -0.23 -0.00487384 1.23242 0.0486985 0.0484472 -0.000143141 0.0485682 8.54544e-07 272.928 
-0.47 -0.23 -0.0604039 1.25502 0.048725 0.048383 -0.000114011 0.0485456 8.54529e-07 272.806 
-0.45 -0.23 -0.523343 1.37902 0.0487707 0.0483611 -9.91767e-05 0.0486043 8.54823e-07 273.042 
-0.49 -0.21 -0.0358678 1.28911 0.0487116 0.0484457 -0.000165465 0.0485796 8.5476e-07 272.923 
-0.43 -0.23 -0.609039 1.44291 0.0488224 0.0483817 -6.97597e-05 0.0486154 8.54732e-07 273.133 
-0.47 -0.21 -0.26068 1.49953 0.0487445 0.048342 -0.000157695 0.0485659 8.54112e-07 273.053 
-0.41 -0.23 -0.785282 1.78945 0.04882 0.0483054 -4.08904e-05 0.0485728 8.5414e-07 273.083 
-0.45 -0.21 -0.280034 1.57735 0.0487706 0.0483491 -0.00010525 0.0485954 8.54436e-07 273.115 
-0.49 -0.19 -0.027493 1.37113 0.0488177 0.0484271 -0.000160004 0.0486177 8.55274e-07 272.973 
-0.39 -0.23 -0.791558 1.84872 0.048815 0.0482861 -1.0155e-05 0.0485638 8.5394e-07 273.096 
-0.43 -0.21 -0.646226 1.63114 0.0487825 0.0483547 -8.4673e-05 0.0485919 8.54579e-07 273.05 
-0.47 -0.19 -0.153161 1.69067 0.0487719 0.048329 -0.000136757 0.0485817 8.54451e-07 273.033 
-0.41 -0.21 -0.776082 1.88117 0.0487988 0.0482539 -4.09912e-05 0.0485676 8.5382e-07 273.156 
-0.45 -0.19 -0.437651 1.81505 0.0487575 0.04832 -0.000112459 0.0485565 8.53896e-07 273.069 
-0.49 -0.17 -0.013956 1.35039 0.0487259 0.0484107 -0.000151147 0.0485697 8.5545e-07 272.647 
-0.39 -0.21 -0.958793 2.08291 0.0488139 0.0483035 -3.88292e-05 0.0485796 8.54375e-07 273.046 
-0.43 -0.19 -0.614499 1.89969 0.0487723 0.048316 -0.000103763 0.0485747 8.54424e-07 273.003 
-0.47 -0.17 -0.181774 2.07824 0.0487449 0.0483037 -0.000125136 0.0485232 8.53697e-07 272.945 
-0.41 -0.19 -0.810141 2.03166 0.0487806 0.0482462 -6.04304e-05 0.0485275 8.53598e-07 273.001 
-0.45 -0.17 -0.291067 1.94101 0.0487787 0.0483146 -0.00014647 0.0485552 8.54076e-07 273.004 
-0.49 -0.15 -0.086421 1.47127 0.0486763 0.0483433 -0.000177735 0.0485145 8.5392e-07 272.825 
-0.39 -0.19 -0.917712 2.14911 0.0487974 0.0482739 -5.43478e-05 0.04854 8.54007e-07 272.941 
-0.43 -0.17 -0.487026 2.08834 0.0487573 0.0482539 -0.000100583 0.0485391 8.53899e-07 272.97 
-0.47 -0.15 0.121263 1.93568 0.0487104 0.0483233 -0.000161207 0.0485091 8.53558e-07 272.91 
-0.41 -0.17 -0.632659 2.1251 0.0487579 0.0482344 -7.01755e-05 0.0485043 8.52468e-07 273.232 
-0.45 -0.15 -0.0141393 2.18325 0.0487097 0.0482737 -0.000135589 0.0485079 8.53476e-07 272.93 
-0.39 -0.17 -0.788106 2.31529 0.0487643 0.048253 -6.47432e-05 0.0485033 8.53216e-07 272.987 
-0.43 -0.15 -0.274092 2.2649 0.0487427 0.0482026 -8.97859e-05 0.0484893 8.53407e-07 272.848 
-0.41 -0.15 -0.533468 2.36136 0.0487542 0.0482295 -7.99091e-05 0.0485056 8.53042e-07 273.056 
-0.39 -0.15 -0.876434 2.67881 0.0487489 0.0482444 -6.44877e-05 0.0484993 8.53921e-07 272.739 
-0.43 -0.25 -0.357807 1.51311 0.0487855 0.048389 -3.90219e-05 0.04859 8.55299e-07 272.809 
-0.41 -0.25 -0.417344 1.58224 0.0488076 0.0483067 -4.04218e-05 0.048578 8.54951e-07 272.853 
-0.39 -0.25 -0.839833 1.65523 0.0488301 0.0483353 -1.90739e-05 0.0485766 8.54884e-07 272.866 
-0.33 -0.25 -1.47308 1.75458 0.0488163 0.0483143 5.00397e-05 0.0485791 8.54882e-07 272.881 
-0.37 -0.25 -1.07439 1.53777 0.0488159 0.0483528 1.08626e-05 0.0486005 8.55358e-07 272.849 
-0.37 -0.23 -1.10913 1.92899 0.0488545 0.0483683 -7.86566e-06 0.0486503 8.55618e-07 273.046 
-0.35 -0.23 -1.30441 1.93721 0.0488523 0.0482914 1.82008e-05 0.0485918 8.54808e-07 272.976 
-0.37 -0.21 -1.10444 2.10032 0.0488053 0.0482896 -1.64862e-05 0.0485808 8.54517e-07 273.007 
-0.35 -0.21 -1.25823 2.09749 0.0488058 0.0482661 3.65849e-05 0.0485477 8.54235e-07 272.912 
-0.33 -0.21 -1.44038 2.03695 0.0488366 0.0482881 4.97787e-05 0.0485733 8.55137e-07 272.768 
-0.37 -0.19 -1.01352 2.26487 0.0488077 0.0482635 -1.2359e-05 0.0485442 8.54102e-07 272.934 
-0.35 -0.19 -1.1489 2.20671 0.048822 0.0482402 1.96234e-05 0.0485252 8.54211e-07 272.793 
-0.33 -0.19 -1.33601 2.24965 0.0488309 0.0482605 2.20096e-05 0.0485377 8.54104e-07 272.897 
-0.37 -0.17 -0.989023 2.47431 0.0487956 0.0482241 -3.30659e-05 0.0485207 8.53623e-07 272.955 
-0.35 -0.17 -1.28285 2.45929 0.0487779 0.0482107 2.27012e-05 0.0485143 8.53748e-07 272.879 
-0.33 -0.17 -1.42757 2.41419 0.0487953 0.0482386 1.68378e-05 0.0485015 8.5394e-07 272.746 
-0.37 -0.15 -1.19662 2.62711 0.0487472 0.0481507 -2.82328e-05 0.0484229 8.52427e-07 272.787 
-0.35 -0.15 -1.27939 2.59363 0.048777 0.0482106 -2.53626e-05 0.048496 8.54118e-07 272.658 
-0.33 -0.15 -1.46617 2.58844 0.0488022 0.0482382 9.63389e-07 0.048514 8.54332e-07 272.691 
-0.37 -0.13 -1.02886 2.72118 0.0487803 0.0481535 -3.6502e-05 0.0484683 8.52924e-07 272.884 
-0.35 -0.13 -1.28136 2.95537 0.048738 0.0481871 -2.04206e-05 0.0484637 8.53561e-07 272.654 
-0.33 -0.13 -1.56736 2.70826 0.0487282 0.0481961 3.72042e-05 0.0484549 8.53338e-07 272.676 
-0.37 -0.11 -1.08972 3.02703 0.0487423 0.0481226 -3.09439e-05 0.0484541 8.52678e-07 272.883 
-0.35 -0.11 -1.42693 3.04597 0.0487394 0.0481562 -9.90625e-07 0.0484393 8.5326e-07 272.613 
-0.33 -0.11 -1.62732 2.984 0.0487498 0.0481573 8.77946e-06 0.0484391 8.52962e-07 272.707 
-0.35 -0.09 -1.44524 3.39131 0.0487359 0.0481481 -2.34416e-06 0.0484483 8.52419e-07 272.933 
-0.49 -0.13 -0.0957509 1.57317 0.0486678 0.0483108 -0.000210005 0.0484849 8.53653e-07 272.744 
-0.47 -0.13 -0.231228 1.93195 0.0487081 0.048284 -0.000200789 0.0484896 8.53321e-07 272.877 
-0.45 -0.13 -0.269316 2.34277 0.0487399 0.0482448 -0.000147123 0.0484812 8.53364e-07 272.816 
-0.49 -0.11 -0.0115338 1.71294 0.0487454 0.0483445 -0.000234497 0.0485303 8.53274e-07 273.121 
-0.43 -0.13 -0.379281 2.50826 0.0487372 0.0481713 -0.000136649 0.0484616 8.52718e-07 272.912 
-0.47 -0.11 -0.28875 2.13826 0.0487254 0.0482467 -0.000192251 0.0484947 8.53257e-07 272.926 
-0.41 -0.13 -0.777183 2.69254 0.0487781 0.0482106 -9.34846e-05 0.0484811 8.53086e-07 272.904 
-0.45 -0.11 -0.49926 2.3993 0.0487199 0.048205 -0.000171812 0.0484773 8.52424e-07 273.095 
-0.49 -0.09 -0.124737 1.91275 0.0486072 0.0482671 -0.000234601 0.0484301 8.51995e-07 272.966 
-0.39 -0.13 -0.933286 2.8702 0.0487821 0.0482132 -5.06829e-05 0.0484985 8.53252e-07 272.948 
-0.43 -0.11 -0.633136 2.75256 0.0487449 0.0481587 -0.000135782 0.0484722 8.52337e-07 273.094 
-0.47 -0.09 -0.321678 2.38463 0.0486616 0.0482419 -0.000213511 0.0484645 8.52383e-07 273.036 
-0.41 -0.11 -0.684312 2.87973 0.0487315 0.0481674 -0.000112671 0.0484491 8.52427e-07 272.935 
-0.45 -0.09 -0.578623 2.56912 0.0486714 0.0481778 -0.000187326 0.0484133 8.52235e-07 272.794 
-0.39 -0.11 -1.00328 3.01394 0.0487372 0.0481625 -7.16708e-05 0.0484742 8.52468e-07 273.063 
-0.43 -0.09 -0.741151 2.86189 0.0486928 0.0481104 -0.000152893 0.0484371 8.52081e-07 272.978 
-0.41 -0.09 -0.877823 3.0113 0.0487186 0.0481181 -0.000116799 0.0484373 8.52517e-07 272.839 
-0.39 -0.09 -0.890995 3.17919 0.0487227 0.0481383 -5.01447e-05 0.0484331 8.52413e-07 272.849 
-0.37 -0.09 -1.23584 3.26765 0.0487246 0.0480992 -4.0539e-05 0.0484247 8.52322e-07 272.831 
-0.35 -0.03 -1.68822 3.8929 0.0485981 0.048023 -2.46689e-05 0.0483144 8.50519e-07 272.787 
-0.37 -0.07 -1.34314 3.5302 0.0487225 0.0480678 -4.66526e-05 0.0484172 8.52213e-07 272.824 
-0.41 -0.05 -1.02058 3.43496 0.048633 0.0480356 -0.000133144 0.048338 8.50919e-07 272.791 
-0.45 -0.03 -0.541384 3.4005 0.0485654 0.0480261 -0.000254282 0.0483114 8.50547e-07 272.76 
-0.35 -0.07 -1.58998 3.65801 0.0487132 0.0480838 1.05927e-05 0.0483993 8.51882e-07 272.829 
-0.39 -0.05 -1.29449 3.60667 0.0486262 0.0480758 -9.9064e-05 0.0483475 8.50874e-07 272.859 
-0.43 -0.03 -0.771937 3.6301 0.0485607 0.0480001 -0.000210079 0.0483018 8.50286e-07 272.79 
-0.33 -0.07 -1.71513 3.46945 0.0487396 0.048099 1.65552e-05 0.0484271 8.52336e-07 272.84 
-0.37 -0.05 -1.50862 3.90669 0.0486226 0.0480119 -7.744e-05 0.0483072 8.50138e-07 272.868 
-0.41 -0.03 -0.987801 3.69546 0.0486017 0.0480198 -0.000133978 0.0482921 8.50213e-07 272.758 
-0.35 -0.05 -1.65974 3.62219 0.0486358 0.048047 -3.79222e-05 0.0483477 8.50405e-07 273.011 
-0.39 -0.03 -1.31297 3.86718 0.0486224 0.0480464 -0.000123247 0.0483342 8.50268e-07 272.979 
-0.33 -0.05 -1.80046 3.74692 0.0486451 0.0480496 1.34898e-05 0.0483766 8.51778e-07 272.734 
-0.37 -0.03 -1.52341 3.95656 0.0486339 0.0479495 -4.43388e-05 0.0482652 8.49923e-07 272.7 
-0.33 -0.03 -1.97263 3.99228 0.0486104 0.0480157 2.72319e-05 0.0483444 8.50447e-07 272.979 
-0.49 -0.07 -0.0168403 2.07437 0.0485833 0.0482409 -0.000255167 0.0484276 8.51869e-07 272.992 
-0.47 -0.07 -0.181693 2.5615 0.0486071 0.048213 -0.00023389 0.0484474 8.51854e-07 273.109 
-0.45 -0.07 -0.410873 2.86842 0.0486496 0.0481199 -0.000216213 0.0483918 8.51864e-07 272.792 
-0.49 -0.05 -0.0345007 2.18255 0.0485214 0.0482075 -0.000310854 0.0483472 8.50134e-07 273.095 
-0.43 -0.07 -0.710593 3.01959 0.0486301 0.0481088 -0.000153204 0.0483948 8.51298e-07 272.991 
-0.47 -0.05 -0.219302 2.77964 0.0485789 0.0481941 -0.000286718 0.048402 8.51505e-07 272.965 
-0.41 -0.07 -0.865461 3.18086 0.0486285 0.0480711 -0.000122171 0.048344 8.50935e-07 272.82 
-0.45 -0.05 -0.400124 3.09738 0.0485739 0.0480424 -0.000220176 0.0483319 8.50718e-07 272.821 
-0.49 -0.03 -0.0780943 2.33432 0.0485321 0.0481698 -0.000336395 0.0483344 8.50376e-07 272.945 
-0.39 -0.07 -1.07401 3.38758 0.0486734 0.0480902 -0.000103986 0.0483953 8.52077e-07 272.744 
-0.43 -0.05 -0.703339 3.2935 0.0486487 0.0480867 -0.000165203 0.0483897 8.51683e-07 272.838 
-0.47 -0.03 -0.277178 2.93854 0.0485373 0.0481174 -0.000272689 0.0483271 8.5047e-07 272.874 
-0.27 -0.07 -2.47913 3.4798 0.0486936 0.0482216 0.000112224 0.048488 8.53249e-07 272.891 
-0.31 -0.05 -2.108 3.69383 0.0486388 0.0480623 5.7719e-05 0.0483742 8.51707e-07 272.743 
-0.27 -0.09 -2.34397 3.27887 0.0487407 0.0482133 9.08813e-05 0.0484961 8.53649e-07 272.808 
-0.31 -0.07 -2.01392 3.30005 0.0487395 0.0480969 4.9144e-05 0.048427 8.52874e-07 272.667 
-0.29 -0.07 -2.32317 3.56378 0.0487006 0.0481545 9.68379e-05 0.0484249 8.52142e-07 272.889 
-0.25 -0.07 -2.49732 3.07184 0.0486897 0.0482133 0.000110724 0.0484523 8.52822e-07 272.826 
-0.29 -0.05 -2.25343 3.64078 0.0486717 0.0481497 8.16804e-05 0.0483999 8.52101e-07 272.762 
-0.27 -0.05 -2.46106 3.57982 0.0486808 0.0481939 9.39973e-05 0.0484271 8.523e-07 272.852 
-0.31 -0.03 -2.15293 3.88603 0.0486158 0.0480458 1.49716e-05 0.0483316 8.50648e-07 272.843 
-0.25 -0.05 -2.53386 3.18877 0.0487013 0.0482182 0.000105504 0.0484691 8.52971e-07 272.873 
-0.29 -0.03 -2.27483 3.84488 0.0486361 0.0481133 4.07343e-05 0.0483884 8.5165e-07 272.841 
-0.27 -0.03 -2.39331 3.66593 0.0486748 0.0481516 7.97197e-05 0.0484317 8.52885e-07 272.69 
-0.25 -0.03 -2.40735 3.21966 0.0486727 0.0482398 0.000102305 0.0484714 8.53212e-07 272.809 
-0.27 -0.01 -2.33605 3.83214 0.0485361 0.0480996 6.8909e-05 0.0483535 8.51163e-07 272.801 
-0.31 -0.25 -1.81098 1.71264 0.0488499 0.0482948 9.85166e-05 0.048569 8.54573e-07 272.923 
-0.29 -0.25 -1.86872 1.65384 0.0488636 0.0483259 8.93984e-05 0.0485863 8.54523e-07 273.037 
-0.27 -0.25 -1.91154 1.58308 0.0488727 0.0483485 8.04418e-05 0.0486096 8.55066e-07 272.994 
-0.29 -0.11 -1.97202 2.92465 0.0487329 0.0481866 6.85512e-05 0.0484982 8.53897e-07 272.741 
-0.33 -0.09 -1.78661 3.20884 0.048726 0.0481323 3.54586e-05 0.0483947 8.52056e-07 272.747 
-0.27 -0.11 -2.21211 3.03273 0.0487327 0.0482203 8.48398e-05 0.0484912 8.54105e-07 272.635 
-0.31 -0.09 -1.94059 3.21376 0.0486994 0.0481156 6.43239e-05 0.0484159 8.51839e-07 272.936 
-0.29 -0.09 -2.13574 3.26412 0.0487355 0.0481955 7.35225e-05 0.0484739 8.53507e-07 272.729 
-0.33 -0.23 -1.48603 1.80204 0.0488346 0.0483084 7.94459e-05 0.0486097 8.55274e-07 272.928 
-0.31 -0.23 -1.46186 2.02741 0.0488252 0.0482576 4.99678e-05 0.0485342 8.53703e-07 273.006 
-0.29 -0.23 -1.77804 1.69428 0.0488524 0.0483573 8.30324e-05 0.0486199 8.55063e-07 273.052 
-0.27 -0.23 -1.93156 1.57488 0.0488559 0.048325 6.24223e-05 0.0485787 8.54164e-07 273.108 
-0.31 -0.21 -1.5702 2.00146 0.0488487 0.0482804 4.63602e-05 0.0485674 8.55387e-07 272.655 
-0.29 -0.21 -1.66519 1.91715 0.0488595 0.0483273 5.033e-05 0.0485921 8.55493e-07 272.759 
-0.27 -0.21 -1.74132 1.81519 0.0488511 0.0483151 0.00011475 0.0485914 8.55227e-07 272.84 
-0.31 -0.19 -1.61327 2.23474 0.0488449 0.0482967 4.01964e-05 0.0485356 8.54212e-07 272.851 
-0.25 -0.21 -2.03475 1.69225 0.0488593 0.0482856 9.14251e-05 0.0485989 8.55268e-07 272.869 
-0.29 -0.19 -1.78149 1.98275 0.0488245 0.0482654 8.28035e-05 0.0485372 8.5456e-07 272.749 
-0.27 -0.19 -1.9149 2.00654 0.0488112 0.0482887 0.000107792 0.0485467 8.54051e-07 272.965 
-0.31 -0.17 -1.55645 2.31823 0.0487865 0.0482784 2.33789e-05 0.0485331 8.54201e-07 272.84 
-0.25 -0.19 -2.18821 2.06764 0.0488062 0.0483007 0.000110146 0.0485552 8.54808e-07 272.77 
-0.29 -0.17 -1.71282 2.23787 0.0488022 0.0482471 8.48062e-05 0.0485294 8.54115e-07 272.847 
-0.27 -0.17 -2.11275 2.42122 0.0488001 0.048272 0.000100066 0.0485503 8.54359e-07 272.886 
-0.31 -0.15 -1.6184 2.54311 0.0487614 0.0482144 4.8584e-05 0.0484879 8.53734e-07 272.735 
-0.25 -0.17 -2.4185 2.22323 0.0488335 0.0482944 0.000105682 0.0485529 8.54047e-07 273.001 
-0.29 -0.15 -1.90008 2.56025 0.0487486 0.0481996 9.92005e-05 0.0484554 8.5332e-07 272.685 
-0.27 -0.15 -2.16328 2.64583 0.0487659 0.0483013 9.32571e-05 0.0485418 8.53959e-07 272.966 
-0.31 -0.13 -1.84067 2.80683 0.0487359 0.048188 5.74527e-05 0.0484519 8.52983e-07 272.773 
-0.25 -0.15 -2.32821 2.46655 0.0487628 0.0482674 9.80585e-05 0.0485086 8.53618e-07 272.889 
-0.29 -0.13 -2.11223 2.86872 0.0487417 0.0481871 5.89836e-05 0.0484722 8.53744e-07 272.644 
-0.27 -0.13 -2.39786 2.75058 0.0487466 0.0482677 7.62883e-05 0.0485191 8.53848e-07 272.874 
-0.31 -0.11 -1.84219 3.21345 0.0487649 0.0481669 5.84455e-05 0.0484683 8.52856e-07 272.905 
-0.25 -0.13 -2.44893 2.60894 0.0487498 0.0482468 0.000122429 0.0484777 8.53512e-07 272.749 
-0.25 -0.25 -1.90929 1.40146 0.0488665 0.0483793 0.000104908 0.0486352 8.55886e-07 272.876 
-0.25 -0.23 -2.08816 1.60203 0.0488148 0.0483206 0.000112055 0.0485671 8.54783e-07 272.845 
-0.25 -0.11 -2.43926 2.79947 0.0487474 0.0482347 9.14283e-05 0.0484869 8.53295e-07 272.87 
-0.25 -0.09 -2.63219 2.95912 0.0487279 0.0482455 0.000104527 0.048487 8.53069e-07 272.943 
-0.25 -0.01 -2.73306 3.47527 0.0485267 0.0481974 0.000126978 0.0483689 8.51805e-07 272.682 
-0.23 -0.49 -0.767479 0.0223509 0.0486781 0.0485327 0.000129115 0.0486044 8.54913e-07 273.013 
-0.21 -0.49 -0.813729 -0.0533065 0.0487242 0.0485674 0.000144553 0.0486522 8.5472e-07 273.343 
-0.19 -0.49 -0.853288 0.0806526 0.0487381 0.0486131 0.000188236 0.0486799 8.55889e-07 273.126 
-0.23 -0.47 -0.823905 0.058244 0.0487476 0.0485398 0.000106479 0.0486497 8.55791e-07 272.988 
-0.17 -0.49 -1.02436 0.099012 0.0487546 0.0485992 0.000150852 0.0486768 8.55891e-07 273.108 
-0.21 -0.47 -0.976976 0.133972 0.048747 0.0485262 0.000135247 0.0486443 8.55784e-07 272.96 
-0.15 -0.49 -1.06717 -0.0085581 0.0487413 0.0486522 0.000188276 0.0486676 8.55965e-07 273.033 