ITEM: TIMESTEP
1092000
ITEM: NUMBER OF CELLS
2500
ITEM: BOX BOUNDS ss ss pp
-0.5 0.5
-0.5 0.5
-0.5 0.5
ITEM: CELLS xc yc f_U[*] f_V[*] f_Tau[1] f_Tau[2] f_Tau[3] f_Press[*] f_Mrho[*] f_Ttra[*] 
-0.49 -0.49 -0.042201 -0.00962301 0.0487171 0.0486375 -8.06871e-06 0.0487212 8.56223e-07 273.251 
-0.47 -0.49 -0.0522837 0.051774 0.0486872 0.0486267 6.25975e-06 0.0486725 8.55849e-07 273.097 
-0.45 -0.49 -0.094175 -0.0174077 0.0486786 0.0485649 3.37395e-05 0.0486247 8.55896e-07 272.814 
-0.49 -0.47 -0.011284 0.0214375 0.0486922 0.0486187 -2.34332e-05 0.0486499 8.55328e-07 273.136 
-0.43 -0.49 -0.168174 0.0753998 0.0486495 0.0485416 2.02557e-06 0.0485834 8.55014e-07 272.863 
-0.47 -0.47 -0.0339992 0.0652748 0.0487256 0.0486065 -3.04734e-06 0.0486861 8.55543e-07 273.271 
-0.41 -0.49 -0.223328 -0.0138545 0.0486732 0.0485281 3.72794e-05 0.048602 8.55086e-07 272.945 
-0.45 -0.47 -0.134263 0.168324 0.0487333 0.048554 4.67767e-05 0.0486448 8.55653e-07 273.004 
-0.49 -0.45 -0.0233166 0.0486188 0.0487256 0.0486143 -4.02939e-05 0.0486698 8.55518e-07 273.187 
-0.39 -0.49 -0.207025 0.0309096 0.0486925 0.048447 3.46882e-05 0.0485688 8.54861e-07 272.83 
-0.43 -0.47 -0.171597 -0.00260121 0.0487309 0.0485654 1.51054e-05 0.0486435 8.55257e-07 273.123 
-0.47 -0.45 -0.155518 0.207325 0.0487158 0.048549 1.9939e-06 0.0486439 8.55552e-07 273.031 
-0.37 -0.49 -0.376537 0.0788892 0.0487069 0.0485184 4.16036e-05 0.0486141 8.55705e-07 272.815 
-0.41 -0.47 -0.323952 0.205328 0.0486944 0.0484878 4.69938e-05 0.0485924 8.54892e-07 272.952 
-0.45 -0.45 -0.28912 0.126509 0.0487573 0.048567 1.27609e-05 0.0486812 8.56198e-07 273.034 
-0.49 -0.43 -0.0702304 0.170232 0.0487096 0.0485801 -4.40061e-05 0.0486643 8.5609e-07 272.974 
-0.35 -0.49 -0.420285 -0.025007 0.0486902 0.0484979 6.40313e-05 0.0485839 8.54891e-07 272.905 
-0.39 -0.47 -0.550464 0.12806 0.048679 0.0484421 4.5933e-05 0.0485714 8.54644e-07 272.914 
-0.43 -0.45 -0.313227 0.203111 0.0487679 0.0485483 5.55173e-05 0.0486547 8.54937e-07 273.288 
-0.47 -0.43 -0.110491 0.248606 0.0487265 0.0485252 -1.29118e-05 0.0486511 8.55838e-07 272.981 
-0.37 -0.47 -0.550122 0.139818 0.0486785 0.0484931 4.17785e-05 0.0485815 8.54641e-07 272.971 
-0.41 -0.45 -0.311459 0.290491 0.0487263 0.0484629 4.04126e-05 0.0486013 8.54716e-07 273.059 
-0.45 -0.43 -0.204228 0.34005 0.0487234 0.048551 -5.49095e-06 0.0486374 8.5551e-07 273.008 
-0.49 -0.41 0.00381 0.365449 0.0487487 0.0485432 -1.39074e-05 0.0486291 8.55576e-07 272.94 
-0.35 -0.47 -0.708411 0.0247231 0.0486956 0.0484853 7.3292e-05 0.0486065 8.55179e-07 272.94 
-0.39 -0.45 -0.435851 0.195641 0.0487534 0.0484505 5.54952e-05 0.04859 8.54674e-07 273.009 
-0.43 -0.43 -0.361078 0.24998 0.048742 0.0484986 2.21334e-05 0.0486332 8.55608e-07 272.953 
-0.47 -0.41 -0.32264 0.337241 0.0487423 0.0485441 -2.33792e-05 0.0486567 8.56113e-07 272.924 
-0.37 -0.45 -0.591303 0.321337 0.0487328 0.0485031 4.82872e-05 0.0486109 8.55256e-07 272.94 
-0.41 -0.43 -0.526115 0.314733 0.0487974 0.0484958 4.28645e-05 0.0486486 8.55614e-07 273.038 
-0.45 -0.41 -0.341998 0.352506 0.0487602 0.0485041 -7.40785e-06 0.0486456 8.55788e-07 272.966 
-0.49 -0.39 -0.0282536 0.355951 0.048694 0.0485227 -1.95182e-05 0.0486088 8.55399e-07 272.883 
-0.35 -0.45 -0.678481 0.123106 0.0487205 0.0484635 5.48171e-05 0.0485723 8.55017e-07 272.8 
-0.39 -0.43 -0.541837 0.337396 0.0487692 0.0484235 3.47809e-05 0.0485753 8.54448e-07 272.998 
-0.43 -0.41 -0.452869 0.386716 0.0487502 0.0485409 1.49384e-05 0.0486546 8.55756e-07 273.026 
-0.47 -0.39 0.0468972 0.503883 0.0487337 0.0485546 -3.0444e-05 0.0486372 8.56236e-07 272.776 
-0.37 -0.43 -0.621019 0.345635 0.0487971 0.048468 5.9669e-05 0.0486153 8.55311e-07 272.948 
-0.41 -0.41 -0.493411 0.345533 0.0487145 0.0484478 3.1492e-05 0.0485707 8.5474e-07 272.879 
-0.45 -0.39 -0.0848198 0.528758 0.0487409 0.048448 -1.51941e-05 0.0486221 8.55937e-07 272.786 
-0.35 -0.43 -0.63922 0.155106 0.0488029 0.0484971 3.57108e-05 0.0486299 8.56146e-07 272.763 
-0.39 -0.41 -0.385845 0.30293 0.0487444 0.0484463 1.4915e-05 0.0485894 8.55444e-07 272.76 
-0.43 -0.39 -0.21632 0.448069 0.048774 0.048533 3.10033e-05 0.048663 8.56141e-07 272.95 
-0.37 -0.41 -0.424146 0.484869 0.0487585 0.0484365 4.76497e-05 0.0485727 8.54978e-07 272.814 
-0.41 -0.39 -0.302293 0.442898 0.0487549 0.0484552 8.42955e-06 0.0486027 8.55137e-07 272.932 
-0.35 -0.41 -0.787174 0.420484 0.0487615 0.0484982 4.28186e-05 0.0485845 8.55413e-07 272.742 
-0.39 -0.39 -0.589451 0.3218 0.0487721 0.0484364 3.42831e-05 0.0486113 8.55836e-07 272.758 
-0.37 -0.39 -0.699912 0.553567 0.0487675 0.0484455 3.22597e-05 0.0485964 8.54833e-07 272.994 
-0.35 -0.39 -0.700396 0.667158 0.0487653 0.0484614 7.16844e-05 0.0485948 8.55617e-07 272.735 
-0.37 -0.37 -0.791297 0.50282 0.0488105 0.0484235 2.04399e-05 0.0486046 8.54803e-07 273.049 
-0.33 -0.49 -0.469634 0.044344 0.0486688 0.0484788 7.39012e-05 0.0485929 8.54698e-07 273.017 
-0.33 -0.47 -0.658008 0.0440148 0.0486885 0.0484955 8.01879e-05 0.0485962 8.54897e-07 272.972 
-0.33 -0.43 -0.728118 0.120025 0.048768 0.0484733 5.5761e-05 0.0486102 8.55448e-07 272.875 
-0.49 -0.37 -0.0649688 0.352972 0.0487268 0.0485343 -5.91254e-05 0.0486226 8.5538e-07 272.966 
-0.47 -0.37 -0.131175 0.545968 0.048754 0.0485433 -5.64973e-05 0.0486585 8.55674e-07 273.074 
-0.45 -0.37 -0.286911 0.600632 0.048739 0.0484472 -1.69631e-05 0.048605 8.54811e-07 273.049 
-0.49 -0.35 0.0467247 0.527622 0.0487865 0.0485715 -5.65895e-05 0.0486619 8.56398e-07 272.862 
-0.43 -0.37 -0.433209 0.649595 0.0487489 0.0485 1.8216e-06 0.0486404 8.55219e-07 273.118 
-0.47 -0.35 -0.153411 0.648244 0.0487639 0.0484938 -1.58349e-05 0.0486405 8.5561e-07 272.994 
-0.45 -0.35 -0.267631 0.768504 0.0487277 0.0484227 -2.28151e-06 0.0486154 8.55098e-07 273.016 
-0.49 -0.33 -0.156424 0.542178 0.0487735 0.04851 -5.47972e-05 0.0486502 8.56718e-07 272.695 
-0.39 -0.37 -0.691116 0.545163 0.0487689 0.048406 9.40717e-06 0.0485854 8.55217e-07 272.81 
-0.43 -0.35 -0.239014 0.56827 0.0487615 0.048477 -3.94372e-05 0.0486484 8.55249e-07 273.153 
-0.47 -0.33 -0.130542 0.762852 0.0487845 0.0484737 -1.40493e-05 0.048618 8.55637e-07 272.859 
-0.41 -0.35 -0.407456 0.766083 0.0487666 0.0484636 3.32124e-05 0.0486185 8.55584e-07 272.879 
-0.45 -0.33 -0.170786 0.836226 0.0488231 0.0484374 -2.84094e-05 0.0486303 8.55518e-07 272.966 
-0.49 -0.31 -0.0715472 0.742988 0.0487341 0.0484842 -6.96782e-05 0.0486058 8.55395e-07 272.868 
-0.39 -0.35 -0.578428 0.745233 0.0487763 0.0484268 -6.55392e-06 0.0485919 8.54724e-07 273.003 
-0.43 -0.33 -0.415375 0.75595 0.0488288 0.0484656 -1.87756e-05 0.048637 8.55189e-07 273.108 
-0.47 -0.31 -0.174478 0.813681 0.0487575 0.0484543 -6.33729e-05 0.0485836 8.54746e-07 272.95 
-0.37 -0.35 -0.874051 0.775909 0.0487332 0.048375 3.06761e-05 0.0485518 8.54486e-07 272.854 
-0.41 -0.33 -0.534152 0.850548 0.0488187 0.0484415 -4.12895e-06 0.0486271 8.55188e-07 273.053 
-0.45 -0.31 -0.226149 0.86573 0.0488017 0.0484535 -6.31912e-05 0.048612 8.55086e-07 273.001 
-0.49 -0.29 -0.0547374 0.884234 0.048754 0.0484653 -8.98919e-05 0.0486009 8.5538e-07 272.845 
-0.35 -0.35 -1.05698 0.922261 0.0487274 0.0484017 5.08982e-05 0.0485769 8.5449e-07 272.994 
-0.39 -0.33 -0.630859 0.972452 0.0488088 0.0484172 4.45893e-05 0.0485915 8.5536e-07 272.798 
-0.43 -0.31 -0.381827 0.931815 0.0488 0.0484453 -4.02533e-05 0.0486284 8.55463e-07 272.972 
-0.47 -0.29 -0.214657 0.851224 0.0487683 0.0484718 -7.78272e-05 0.048625 8.55784e-07 272.851 
-0.37 -0.33 -0.765747 1.06504 0.0487939 0.0483651 4.38517e-05 0.0485783 8.54709e-07 272.932 
-0.41 -0.31 -0.663311 1.0043 0.0488255 0.0483888 1.71796e-05 0.0486218 8.5527e-07 272.997 
-0.45 -0.29 -0.283381 0.988681 0.0487585 0.0484429 -7.12805e-05 0.0486039 8.55177e-07 272.927 
-0.49 -0.27 -0.0610089 1.0521 0.0488265 0.0484393 -8.3497e-05 0.0486509 8.56399e-07 272.801 
-0.35 -0.33 -0.904698 0.97291 0.0488245 0.0484324 5.79732e-06 0.048654 8.5564e-07 273.059 
-0.39 -0.31 -0.687112 1.0448 0.0488639 0.0484147 2.0929e-05 0.0486417 8.55408e-07 273.065 
-0.43 -0.29 -0.366625 1.14595 0.0487585 0.0483765 -5.11926e-05 0.048557 8.54747e-07 272.8 
-0.47 -0.27 -0.142467 0.910044 0.0488351 0.0484565 -8.47636e-05 0.0486694 8.56336e-07 272.924 
-0.37 -0.31 -0.772191 1.10898 0.0488859 0.0483985 1.03601e-05 0.0486382 8.55292e-07 273.082 
-0.41 -0.29 -0.445041 1.09727 0.0488055 0.0483639 -3.06195e-05 0.0485949 8.54782e-07 273.002 
-0.45 -0.27 -0.23357 1.05198 0.0488442 0.0484116 -7.0919e-05 0.0486155 8.55831e-07 272.783 
-0.35 -0.31 -0.924152 1.26784 0.0488838 0.0484131 4.78124e-05 0.0486563 8.55541e-07 273.104 
-0.39 -0.29 -0.640486 1.25554 0.048826 0.0483985 5.81937e-06 0.0486 8.54664e-07 273.068 
-0.43 -0.27 -0.410652 1.30081 0.0488517 0.0483683 -4.173e-05 0.0486292 8.55608e-07 272.931 
-0.37 -0.29 -0.814511 1.12543 0.0488266 0.0484125 9.42808e-06 0.0486429 8.54614e-07 273.325 
-0.41 -0.27 -0.557339 1.27014 0.0488269 0.0483468 -4.1476e-05 0.0485634 8.55218e-07 272.686 
-0.35 -0.29 -1.07064 1.51052 0.048828 0.0483633 3.57184e-05 0.0485939 8.54943e-07 272.945 
-0.39 -0.27 -0.872462 1.42824 0.0488393 0.0483603 -2.55756e-05 0.0486233 8.55193e-07 273.03 
-0.33 -0.29 -1.17585 1.42294 0.0488807 0.0484149 4.40175e-05 0.048633 8.55289e-07 273.054 
-0.37 -0.27 -1.04747 1.36466 0.0488597 0.0483911 1.89821e-05 0.0486368 8.55294e-07 273.074 
-0.35 -0.27 -1.14369 1.56752 0.0488472 0.0483754 1.43706e-05 0.0486136 8.5569e-07 272.817 
-0.33 -0.27 -1.28095 1.57276 0.0488268 0.0483525 5.86331e-05 0.0485642 8.54625e-07 272.88 
-0.41 -0.37 -0.505909 0.630109 0.0487872 0.0484811 8.75282e-06 0.0486402 8.56006e-07 272.866 
-0.35 -0.37 -0.886012 0.853721 0.0488179 0.0484312 5.26589e-05 0.0486126 8.55726e-07 272.8 
-0.33 -0.37 -0.988074 0.579574 0.0488017 0.0484532 5.74111e-05 0.048627 8.55268e-07 273.027 
-0.33 -0.35 -1.26672 0.733356 0.0487761 0.0484439 6.28278e-05 0.048631 8.55112e-07 273.099 
-0.33 -0.31 -1.22646 1.12888 0.0488382 0.0483925 6.08452e-05 0.04862 8.55071e-07 273.051 
-0.35 -0.25 -1.2663 1.72866 0.0488369 0.0483415 3.07233e-05 0.048603 8.55274e-07 272.89 
-0.31 -0.49 -0.495149 0.029797 0.048699 0.0485665 9.17587e-05 0.0486443 8.54904e-07 273.241 
-0.29 -0.49 -0.589272 0.0474121 0.0486965 0.0485107 0.000108222 0.0486191 8.54648e-07 273.18 
-0.27 -0.49 -0.673725 -0.0420434 0.0486977 0.0484824 0.000121879 0.0485914 8.55059e-07 272.894 
-0.31 -0.47 -0.653425 0.0201493 0.0486921 0.0485385 8.21862e-05 0.0486075 8.54276e-07 273.234 
-0.29 -0.47 -0.651604 0.0921242 0.0486976 0.0484536 0.000113396 0.0485886 8.54171e-07 273.162 
-0.27 -0.47 -0.657483 0.0876725 0.0487086 0.0484952 0.000114163 0.0485775 8.54336e-07 273.047 
-0.31 -0.45 -0.774663 0.131305 0.0487572 0.0485002 7.58112e-05 0.0486275 8.55107e-07 273.081 
-0.29 -0.45 -0.774697 0.166166 0.0487389 0.048476 0.000116526 0.0486101 8.5464e-07 273.133 
-0.27 -0.45 -1.08814 0.232354 0.0487412 0.0484898 0.000113908 0.0485971 8.54922e-07 272.97 
-0.31 -0.43 -1.06047 0.219935 0.0487525 0.048445 8.66985e-05 0.0486042 8.55275e-07 272.897 
-0.29 -0.43 -1.30662 0.353777 0.0487678 0.0484585 0.000116126 0.0486136 8.55159e-07 272.986 
-0.27 -0.43 -1.28846 0.37728 0.0487735 0.048503 0.000110205 0.0486225 8.54629e-07 273.206 
-0.31 -0.41 -1.22689 0.40349 0.0487756 0.0484178 0.000107212 0.048597 8.54982e-07 272.95 
-0.25 -0.43 -1.40055 0.269915 0.0487495 0.0484884 0.000109848 0.0486157 8.5431e-07 273.269 
-0.29 -0.41 -1.33366 0.413006 0.0487869 0.048463 8.7645e-05 0.0486209 8.55032e-07 273.068 
-0.27 -0.41 -1.36445 0.317191 0.0487893 0.0485082 0.000123904 0.0486473 8.55754e-07 272.986 
-0.31 -0.39 -1.00121 0.628561 0.048798 0.0484236 7.48519e-05 0.048614 8.54979e-07 273.046 
-0.25 -0.41 -1.37153 0.343375 0.0487801 0.0484757 0.000111048 0.0486306 8.55277e-07 273.044 
-0.29 -0.39 -1.07852 0.370001 0.0488281 0.0484142 8.83661e-05 0.0486256 8.55384e-07 272.982 
-0.27 -0.39 -1.26967 0.590377 0.0488447 0.0484847 0.000127182 0.0487038 8.56443e-07 273.083 
-0.31 -0.37 -1.11305 0.738694 0.0487766 0.048418 6.02757e-05 0.0486065 8.54633e-07 273.115 
-0.25 -0.39 -1.50544 0.539351 0.0488221 0.0485218 0.000140264 0.0486951 8.56366e-07 273.059 
-0.29 -0.37 -1.28719 0.600991 0.0487676 0.0483758 6.8942e-05 0.0485759 8.55199e-07 272.762 
-0.27 -0.37 -1.42019 0.643264 0.0488099 0.048428 9.32048e-05 0.0486412 8.55428e-07 273.056 
-0.31 -0.35 -1.32749 0.771075 0.0488347 0.048432 4.46733e-05 0.0486467 8.55451e-07 273.079 
-0.29 -0.35 -1.40616 0.846102 0.0488372 0.0483591 6.39402e-05 0.0486232 8.55689e-07 272.871 
-0.27 -0.35 -1.57852 0.915126 0.0488383 0.0484153 8.61136e-05 0.0486253 8.5542e-07 272.969 
-0.31 -0.33 -1.23965 0.91212 0.0488101 0.0484115 4.44035e-05 0.0485995 8.54849e-07 273.006 
-0.29 -0.33 -1.58244 1.02312 0.0488006 0.0483461 6.22963e-05 0.0485841 8.55206e-07 272.806 
-0.27 -0.33 -1.67602 1.0178 0.0487831 0.0483729 0.000107857 0.0485803 8.55056e-07 272.833 
-0.31 -0.31 -1.42277 1.05249 0.0488155 0.0483941 6.0337e-05 0.0486067 8.54758e-07 273.076 
-0.29 -0.31 -1.49863 1.26987 0.0488036 0.0483368 7.63884e-05 0.0485823 8.54785e-07 272.93 
-0.27 -0.31 -1.74942 1.04133 0.0487986 0.0483392 7.96998e-05 0.0485505 8.5414e-07 272.958 
-0.31 -0.29 -1.47001 1.35912 0.0488301 0.0483529 6.57438e-05 0.04859 8.54347e-07 273.113 
-0.25 -0.31 -1.78924 1.12936 0.0488123 0.0484598 0.000108459 0.0486303 8.54906e-07 273.161 
-0.29 -0.29 -1.78837 1.2864 0.0488321 0.0483409 7.70858e-05 0.0485822 8.53963e-07 273.192 
-0.27 -0.29 -1.76685 1.21611 0.0488539 0.048342 9.63868e-05 0.0485845 8.54639e-07 272.989 
-0.31 -0.27 -1.4211 1.54693 0.0488476 0.0483587 7.54667e-05 0.0486236 8.55592e-07 272.905 
-0.25 -0.29 -1.95857 1.17056 0.0488605 0.0484421 8.76241e-05 0.0486307 8.55036e-07 273.122 
-0.29 -0.27 -1.49646 1.54246 0.0488156 0.0483028 0.00010522 0.0485642 8.54308e-07 272.981 
-0.27 -0.27 -1.83415 1.45683 0.048799 0.0483542 8.18074e-05 0.0485708 8.54398e-07 272.989 
-0.25 -0.27 -2.04289 1.2872 0.0488076 0.0483821 0.000112633 0.0485864 8.54683e-07 272.986 
-0.33 -0.45 -0.762321 -0.0506421 0.0487507 0.0484958 5.92862e-05 0.0485993 8.55117e-07 272.92 
-0.33 -0.41 -1.16618 0.415282 0.048786 0.0484614 8.12869e-05 0.0486002 8.55532e-07 272.792 
-0.33 -0.39 -0.808365 0.517999 0.0487671 0.0484374 6.52965e-05 0.0485943 8.55102e-07 272.896 
-0.33 -0.33 -1.00904 0.924174 0.0488129 0.0484232 1.30909e-05 0.0486128 8.5467e-07 273.139 
-0.25 -0.49 -0.687875 0.0430045 0.0486563 0.048491 0.00012759 0.0486037 8.55579e-07 272.797 
-0.25 -0.47 -0.803894 0.105517 0.0487467 0.0485102 0.000100258 0.0486315 8.55552e-07 272.962 
-0.25 -0.45 -1.13667 0.119167 0.0487441 0.0485078 8.58065e-05 0.0486186 8.5534e-07 272.957 
-0.25 -0.37 -1.58205 0.684791 0.0488447 0.0485273 0.000143309 0.0486897 8.5606e-07 273.126 
-0.25 -0.35 -1.86369 0.797284 0.0488221 0.0484491 0.000116457 0.0486405 8.56028e-07 272.86 
-0.25 -0.33 -1.692 1.05485 0.0487858 0.0484599 0.000103356 0.0486384 8.5568e-07 272.959 
-0.49 -0.25 0.00417811 1.12889 0.0487492 0.0484461 -0.000125447 0.0486429 8.55609e-07 273.008 
-0.47 -0.25 -0.214425 1.11596 0.0488112 0.0484182 -9.99934e-05 0.0486193 8.55555e-07 272.892 
-0.45 -0.25 -0.351978 1.07019 0.0487919 0.0483936 -6.43203e-05 0.0486184 8.55668e-07 272.851 
-0.49 -0.23 -0.031938 1.17617 0.0487272 0.0484636 -0.00014853 0.0485902 8.54892e-07 272.94 
-0.47 -0.23 -0.0500237 1.2657 0.0487397 0.0483818 -0.000130149 0.0485557 8.54581e-07 272.846 
-0.45 -0.23 -0.466912 1.36132 0.0487744 0.0483491 -0.000103768 0.0486013 8.54806e-07 273.03 
-0.49 -0.21 -0.0532371 1.22949 0.048729 0.0484557 -0.000166524 0.0485842 8.54729e-07 272.958 
-0.43 -0.23 -0.574573 1.44675 0.0488183 0.0483802 -7.26624e-05 0.0486042 8.54789e-07 273.052 
-0.47 -0.21 -0.277367 1.51654 0.0487515 0.0483473 -0.000155332 0.0485682 8.54171e-07 273.047 
-0.41 -0.23 -0.740553 1.77305 0.0488165 0.0483226 -4.82744e-05 0.0485708 8.54152e-07 273.068 
-0.45 -0.21 -0.331726 1.51984 0.0487741 0.0483359 -0.000108892 0.048586 8.54243e-07 273.124 
-0.49 -0.19 -0.0140506 1.35211 0.0488009 0.048422 -0.000168245 0.0486105 8.55349e-07 272.909 
-0.39 -0.23 -0.743915 1.81526 0.0488267 0.0482904 -1.33481e-05 0.0485728 8.53926e-07 273.151 
-0.43 -0.21 -0.656493 1.65922 0.0487977 0.0483549 -8.88371e-05 0.0485988 8.5482e-07 273.012 
-0.47 -0.19 -0.147107 1.67036 0.0487791 0.0483362 -0.000131835 0.04858 8.54429e-07 273.031 
-0.41 -0.21 -0.784098 1.84445 0.0488027 0.0482727 -4.35803e-05 0.0485708 8.53823e-07 273.173 
-0.45 -0.19 -0.388571 1.81487 0.0487691 0.0483151 -0.00011707 0.0485571 8.53941e-07 273.058 
-0.49 -0.17 -0.0239202 1.34737 0.0487312 0.0484107 -0.000158978 0.0485703 8.5546e-07 272.647 
-0.39 -0.21 -0.964626 2.06345 0.0487966 0.0482911 -3.67004e-05 0.0485686 8.54172e-07 273.049 
-0.43 -0.19 -0.636036 1.87287 0.0487692 0.0483074 -0.000110484 0.0485658 8.54494e-07 272.93 
-0.47 -0.17 -0.145129 1.99101 0.0487452 0.0482992 -0.000134805 0.0485219 8.53737e-07 272.926 
-0.41 -0.19 -0.81313 1.98153 0.0487963 0.0482573 -6.24573e-05 0.0485381 8.53752e-07 273.012 
-0.45 -0.17 -0.236651 1.94267 0.0487807 0.0483104 -0.000138567 0.0485539 8.53974e-07 273.029 
-0.49 -0.15 -0.065207 1.44066 0.0486935 0.0483521 -0.000189671 0.0485254 8.53983e-07 272.866 
-0.39 -0.19 -0.905491 2.1132 0.0488174 0.048277 -4.33969e-05 0.0485527 8.54192e-07 272.953 
-0.43 -0.17 -0.422667 2.09516 0.0487737 0.0482613 -0.000109335 0.0485517 8.54145e-07 272.963 
-0.47 -0.15 0.0991717 1.88504 0.0487299 0.0483088 -0.000168565 0.0485161 8.53685e-07 272.91 
-0.41 -0.17 -0.604652 2.1069 0.0487657 0.048229 -6.91142e-05 0.0485049 8.52557e-07 273.208 
-0.45 -0.15 -0.0404239 2.15411 0.0487371 0.0482747 -0.000150161 0.0485217 8.53495e-07 273.002 
-0.39 -0.17 -0.821805 2.31465 0.0487736 0.0482635 -6.97249e-05 0.0485192 8.53438e-07 273.006 
-0.43 -0.15 -0.304831 2.28168 0.048758 0.0482087 -9.5397e-05 0.0484996 8.53578e-07 272.851 
-0.41 -0.15 -0.576145 2.35692 0.048771 0.0482216 -7.82054e-05 0.0485094 8.53104e-07 273.057 
-0.39 -0.15 -0.883922 2.66225 0.0487732 0.0482524 -6.48051e-05 0.0485162 8.54204e-07 272.744 
-0.43 -0.25 -0.347823 1.50926 0.0487984 0.0483862 -4.28509e-05 0.0485871 8.5513e-07 272.847 
-0.41 -0.25 -0.488296 1.54589 0.0488234 0.0483265 -4.85641e-05 0.048587 8.54919e-07 272.914 
-0.39 -0.25 -0.871202 1.64556 0.0488364 0.0483394 -2.24668e-05 0.0485873 8.55012e-07 272.886 
-0.33 -0.25 -1.49588 1.7673 0.04882 0.0483349 5.23524e-05 0.0485864 8.54707e-07 272.978 
-0.37 -0.25 -1.07082 1.48402 0.0488188 0.0483668 1.33317e-05 0.0486073 8.55412e-07 272.87 
-0.37 -0.23 -1.10245 1.876 0.0488543 0.0483662 -1.40071e-06 0.0486532 8.55492e-07 273.103 
-0.35 -0.23 -1.33697 1.97825 0.0488532 0.0482982 2.18685e-05 0.0485929 8.5472e-07 273.01 
-0.37 -0.21 -1.1039 2.10811 0.0488005 0.0482929 -1.10223e-05 0.0485782 8.54396e-07 273.031 
-0.35 -0.21 -1.26345 2.11174 0.0488175 0.0482779 3.21409e-05 0.0485555 8.54141e-07 272.985 
-0.33 -0.21 -1.42006 2.04122 0.0488528 0.0483044 4.2906e-05 0.0485845 8.55065e-07 272.853 
-0.37 -0.19 -0.998099 2.27788 0.0488297 0.0482716 -1.8791e-05 0.0485605 8.54259e-07 272.976 
-0.35 -0.19 -1.14719 2.20385 0.0488345 0.0482518 1.20581e-05 0.0485439 8.54181e-07 272.907 
-0.33 -0.19 -1.33769 2.23578 0.0488368 0.0482719 2.49281e-05 0.0485469 8.54043e-07 272.968 
-0.37 -0.17 -1.02377 2.43239 0.0488017 0.0482354 -3.68377e-05 0.0485287 8.53602e-07 273.007 
-0.35 -0.17 -1.29571 2.46705 0.0487863 0.048211 2.247e-05 0.0485194 8.53619e-07 272.949 
-0.33 -0.17 -1.43606 2.40366 0.0488111 0.0482488 2.24526e-05 0.0485132 8.53986e-07 272.797 
-0.37 -0.15 -1.18645 2.60788 0.0487596 0.04817 -2.6705e-05 0.0484387 8.52707e-07 272.786 
-0.35 -0.15 -1.27978 2.60521 0.0487888 0.0482048 -2.54339e-05 0.0484957 8.54129e-07 272.653 
-0.33 -0.15 -1.47118 2.58811 0.0488052 0.0482365 1.15604e-05 0.0485145 8.54215e-07 272.731 
-0.37 -0.13 -1.06161 2.7441 0.0487912 0.0481723 -3.49841e-05 0.0484861 8.53208e-07 272.893 
-0.35 -0.13 -1.2594 2.9364 0.0487451 0.0481686 -1.39726e-05 0.0484597 8.53463e-07 272.663 
-0.33 -0.13 -1.53468 2.68778 0.048742 0.0482012 3.4357e-05 0.0484648 8.533e-07 272.744 
-0.37 -0.11 -1.1102 3.00272 0.0487518 0.0481329 -2.77145e-05 0.048475 8.52915e-07 272.925 
-0.35 -0.11 -1.45157 3.0228 0.0487501 0.0481454 4.06681e-06 0.0484508 8.53092e-07 272.731 
-0.33 -0.11 -1.61845 2.99593 0.0487614 0.0481672 8.97023e-06 0.0484606 8.52998e-07 272.817 
-0.35 -0.09 -1.42407 3.35236 0.0487424 0.0481392 -6.81174e-07 0.0484506 8.52397e-07 272.953 
-0.49 -0.13 -0.0860454 1.51285 0.0486978 0.0483242 -0.00021696 0.0485076 8.53974e-07 272.769 
-0.47 -0.13 -0.226965 1.94106 0.0487271 0.0482747 -0.000200258 0.0484988 8.5353e-07 272.862 
-0.45 -0.13 -0.307525 2.30802 0.04875 0.0482399 -0.00015202 0.04849 8.53326e-07 272.877 
-0.49 -0.11 -0.0161022 1.65191 0.0487435 0.048336 -0.000232724 0.0485303 8.53299e-07 273.113 
-0.43 -0.13 -0.373551 2.52014 0.048748 0.0481835 -0.000137681 0.0484741 8.52739e-07 272.976 
-0.47 -0.11 -0.266972 2.15269 0.048723 0.0482445 -0.000196189 0.0484874 8.53063e-07 272.947 
-0.41 -0.13 -0.755816 2.70766 0.0487806 0.0481891 -9.48379e-05 0.0484742 8.53015e-07 272.888 
-0.45 -0.11 -0.492047 2.36658 0.0487206 0.0482126 -0.000169623 0.0484845 8.52373e-07 273.151 
-0.49 -0.09 -0.154058 1.88386 0.0486105 0.0482513 -0.000238869 0.0484201 8.52068e-07 272.886 
-0.39 -0.13 -0.955635 2.79611 0.0487821 0.0482223 -5.49051e-05 0.0485058 8.53405e-07 272.941 
-0.43 -0.11 -0.660004 2.74608 0.0487385 0.0481524 -0.000134284 0.0484686 8.52171e-07 273.127 
-0.47 -0.09 -0.341675 2.3775 0.0486722 0.0482409 -0.000207589 0.0484683 8.52492e-07 273.022 
-0.41 -0.11 -0.655596 2.93221 0.0487377 0.0481497 -0.000116048 0.0484472 8.52391e-07 272.936 
-0.45 -0.09 -0.584312 2.55724 0.0486797 0.0481827 -0.000192891 0.0484207 8.5248e-07 272.758 
-0.39 -0.11 -0.971009 2.99395 0.0487481 0.0481842 -6.5655e-05 0.0484856 8.5278e-07 273.027 
-0.43 -0.09 -0.713466 2.84119 0.0487 0.0481121 -0.000153641 0.048434 8.51924e-07 273.011 
-0.41 -0.09 -0.856699 3.01288 0.048727 0.0481064 -0.000120697 0.0484251 8.52311e-07 272.837 
-0.39 -0.09 -0.866516 3.19056 0.0487378 0.0481529 -5.34903e-05 0.0484405 8.52233e-07 272.948 
-0.37 -0.09 -1.2234 3.26824 0.0487372 0.0481132 -3.64072e-05 0.0484392 8.52428e-07 272.878 
-0.35 -0.03 -1.6637 3.85682 0.0485979 0.0480241 -2.30027e-05 0.0483187 8.50617e-07 272.78 
-0.37 -0.07 -1.32019 3.53752 0.0487074 0.0480788 -3.55163e-05 0.0484155 8.52251e-07 272.802 
-0.41 -0.05 -1.03187 3.44933 0.0486143 0.0480244 -0.00013086 0.0483248 8.50617e-07 272.814 
-0.45 -0.03 -0.551526 3.35608 0.0485556 0.0480233 -0.000250206 0.0483062 8.50443e-07 272.764 
-0.35 -0.07 -1.5768 3.59937 0.0487038 0.0480831 1.51622e-05 0.0483924 8.51591e-07 272.883 
-0.39 -0.05 -1.28977 3.56955 0.0486117 0.0480644 -0.000100954 0.0483388 8.50712e-07 272.862 
-0.43 -0.03 -0.752401 3.66205 0.0485507 0.0479991 -0.000197979 0.0482946 8.50375e-07 272.721 
-0.33 -0.07 -1.70014 3.45652 0.0487179 0.0480979 2.32669e-05 0.0484189 8.5223e-07 272.827 
-0.37 -0.05 -1.47884 3.92931 0.0486146 0.0480256 -6.87329e-05 0.0483112 8.50098e-07 272.904 
-0.41 -0.03 -0.983146 3.66635 0.0485929 0.0480169 -0.000129201 0.0482923 8.50218e-07 272.758 
-0.35 -0.05 -1.60346 3.56584 0.0486185 0.048041 -1.76289e-05 0.0483396 8.50294e-07 273.001 
-0.39 -0.03 -1.29655 3.84699 0.0486058 0.0480383 -0.000120423 0.0483205 8.50049e-07 272.972 
-0.33 -0.05 -1.75457 3.73085 0.0486425 0.0480578 1.90688e-05 0.0483733 8.51815e-07 272.703 
-0.37 -0.03 -1.51122 3.8991 0.0486064 0.0479449 -3.67787e-05 0.0482533 8.49897e-07 272.641 
-0.33 -0.03 -1.94974 3.96453 0.0486171 0.0480275 2.13771e-05 0.0483508 8.5073e-07 272.924 
-0.49 -0.07 -0.00166412 2.02226 0.048595 0.0482395 -0.000257221 0.048429 8.51812e-07 273.018 
-0.47 -0.07 -0.162826 2.55272 0.0486225 0.0482194 -0.000243729 0.0484559 8.52124e-07 273.07 
-0.45 -0.07 -0.373139 2.84712 0.0486622 0.048121 -0.000217587 0.0484004 8.52042e-07 272.784 
-0.49 -0.05 -0.0277375 2.14045 0.0485352 0.0482129 -0.000311228 0.0483537 8.50301e-07 273.079 
-0.43 -0.07 -0.705601 3.0356 0.0486427 0.0481035 -0.000153275 0.0483914 8.51236e-07 272.991 
-0.47 -0.05 -0.232569 2.77326 0.0485809 0.0481986 -0.000293285 0.0484057 8.51709e-07 272.92 
-0.41 -0.07 -0.87309 3.17491 0.0486336 0.0480672 -0.00012045 0.048341 8.50772e-07 272.856 
-0.45 -0.05 -0.391923 3.07223 0.0485784 0.04804 -0.000211314 0.0483292 8.50792e-07 272.783 
-0.49 -0.03 -0.0961557 2.31657 0.0485289 0.0481746 -0.00034282 0.0483371 8.50384e-07 272.958 
-0.39 -0.07 -1.08142 3.39631 0.0486617 0.0480873 -0.00010397 0.0483913 8.51896e-07 272.779 
-0.43 -0.05 -0.711768 3.28539 0.0486348 0.0480861 -0.00015943 0.0483756 8.51475e-07 272.825 
-0.47 -0.03 -0.31196 2.89544 0.0485374 0.0481205 -0.000268334 0.0483243 8.50472e-07 272.858 
-0.27 -0.07 -2.47691 3.50072 0.0486927 0.048206 0.00011003 0.0484772 8.53154e-07 272.86 
-0.31 -0.05 -2.05796 3.69432 0.0486482 0.0480717 5.89806e-05 0.0483768 8.51787e-07 272.732 
-0.27 -0.09 -2.3593 3.23365 0.0487379 0.0482058 9.12852e-05 0.0484898 8.53581e-07 272.795 
-0.31 -0.07 -2.00034 3.33753 0.0487244 0.0481086 6.07303e-05 0.0484275 8.53009e-07 272.627 
-0.29 -0.07 -2.31778 3.52318 0.0486982 0.0481533 9.65257e-05 0.0484234 8.52215e-07 272.858 
-0.25 -0.07 -2.53163 3.04733 0.0486913 0.0482288 0.00011346 0.0484601 8.53004e-07 272.812 
-0.29 -0.05 -2.26205 3.65622 0.048667 0.0481457 8.53896e-05 0.048401 8.52192e-07 272.739 
-0.27 -0.05 -2.46843 3.55553 0.0486828 0.0481943 9.36616e-05 0.0484249 8.52414e-07 272.802 
-0.31 -0.03 -2.16705 3.94765 0.0486196 0.0480488 2.13763e-05 0.0483314 8.50794e-07 272.794 
-0.25 -0.05 -2.50185 3.19718 0.0486885 0.0482138 0.000117485 0.0484617 8.52847e-07 272.871 
-0.29 -0.03 -2.26163 3.88274 0.0486496 0.0481201 4.5685e-05 0.0484036 8.52057e-07 272.797 
-0.27 -0.03 -2.40538 3.65826 0.048674 0.0481419 8.23636e-05 0.0484264 8.52929e-07 272.647 
-0.25 -0.03 -2.4872 3.25076 0.0486844 0.0482316 0.000101898 0.0484747 8.53395e-07 272.769 
-0.27 -0.01 -2.3287 3.85886 0.0485382 0.0481011 6.90796e-05 0.0483552 8.51397e-07 272.735 
-0.31 -0.25 -1.77429 1.69338 0.0488432 0.0482946 9.51332e-05 0.0485735 8.54456e-07 272.986 
-0.29 -0.25 -1.83042 1.70457 0.0488614 0.0483368 9.78264e-05 0.0485925 8.54503e-07 273.078 
-0.27 -0.25 -1.89418 1.58799 0.0488596 0.0483531 7.75379e-05 0.0485975 8.54902e-07 272.978 
-0.29 -0.11 -1.97256 2.91157 0.0487354 0.0481772 7.15823e-05 0.0484972 8.53855e-07 272.749 
-0.33 -0.09 -1.72595 3.19263 0.0487342 0.0481376 4.01332e-05 0.048404 8.5212e-07 272.779 
-0.27 -0.11 -2.18038 3.0283 0.0487415 0.0482251 9.47766e-05 0.0484902 8.54107e-07 272.629 
-0.31 -0.09 -1.90767 3.22192 0.0487055 0.048126 6.62208e-05 0.0484259 8.51997e-07 272.942 
-0.29 -0.09 -2.13456 3.23973 0.0487358 0.0481873 7.7632e-05 0.0484696 8.53434e-07 272.728 
-0.33 -0.23 -1.49778 1.85666 0.0488331 0.0483187 8.33484e-05 0.0486056 8.54982e-07 272.998 
-0.31 -0.23 -1.47784 1.96212 0.0488323 0.0482779 5.17693e-05 0.0485465 8.53624e-07 273.1 
-0.29 -0.23 -1.76087 1.72927 0.0488603 0.0483475 8.48524e-05 0.0486173 8.55009e-07 273.055 
-0.27 -0.23 -1.92136 1.6289 0.0488729 0.0483445 7.01145e-05 0.0485943 8.54363e-07 273.132 
-0.31 -0.21 -1.5676 1.95802 0.0488647 0.048294 5.4629e-05 0.0485793 8.55347e-07 272.734 
-0.29 -0.21 -1.67691 1.94399 0.0488735 0.0483187 5.12396e-05 0.0485965 8.55561e-07 272.762 
-0.27 -0.21 -1.71759 1.82527 0.0488662 0.0483315 0.000116044 0.0485984 8.55307e-07 272.854 
-0.31 -0.19 -1.57707 2.16125 0.0488459 0.0482994 3.88502e-05 0.0485444 8.54279e-07 272.879 
-0.25 -0.21 -1.98451 1.68529 0.0488757 0.0482951 0.000100542 0.0486037 8.55107e-07 272.947 
-0.29 -0.19 -1.72765 2.02231 0.0488295 0.0482726 8.65349e-05 0.0485457 8.54478e-07 272.822 
-0.27 -0.19 -1.87305 2.01053 0.0488082 0.0483037 0.000108019 0.0485587 8.54152e-07 273 
-0.31 -0.17 -1.62137 2.28174 0.0487876 0.0482875 3.2916e-05 0.0485337 8.5414e-07 272.863 
-0.25 -0.19 -2.14795 2.04093 0.0488063 0.0482962 0.000113594 0.0485584 8.54544e-07 272.873 
-0.29 -0.17 -1.74387 2.19621 0.0488013 0.0482499 8.3576e-05 0.0485297 8.54023e-07 272.878 
-0.27 -0.17 -2.09751 2.42033 0.0488133 0.0482824 0.000101323 0.0485551 8.54376e-07 272.908 
-0.31 -0.15 -1.58011 2.52451 0.0487857 0.0482311 5.63785e-05 0.0485078 8.54031e-07 272.752 
-0.25 -0.17 -2.40035 2.23259 0.0488398 0.0482993 0.000102644 0.0485568 8.5418e-07 272.98 
-0.29 -0.15 -1.9338 2.48705 0.0487622 0.0482078 0.000101631 0.0484681 8.5342e-07 272.724 
-0.27 -0.15 -2.19552 2.6481 0.0487687 0.0483062 8.75246e-05 0.0485447 8.5415e-07 272.922 
-0.31 -0.13 -1.81827 2.79067 0.0487477 0.0481983 5.97306e-05 0.048459 8.52995e-07 272.809 
-0.25 -0.15 -2.35059 2.45344 0.048765 0.0482752 9.74678e-05 0.0485088 8.53811e-07 272.828 
-0.29 -0.13 -2.06157 2.82907 0.0487605 0.0481966 6.62273e-05 0.0484831 8.53904e-07 272.654 
-0.27 -0.13 -2.38324 2.75634 0.0487556 0.0482733 8.89236e-05 0.0485291 8.54124e-07 272.842 
-0.31 -0.11 -1.84302 3.15284 0.0487685 0.0481794 5.64084e-05 0.0484792 8.53049e-07 272.905 
-0.25 -0.13 -2.44574 2.61038 0.0487471 0.0482538 0.000124946 0.0484817 8.53249e-07 272.855 
-0.25 -0.25 -1.92943 1.38934 0.0488578 0.048373 9.50379e-05 0.0486266 8.55812e-07 272.851 
-0.25 -0.23 -2.06868 1.57292 0.0488202 0.0483247 0.00011212 0.0485746 8.54771e-07 272.891 
-0.25 -0.11 -2.44817 2.84495 0.0487637 0.0482575 0.000106015 0.0485039 8.53546e-07 272.885 
-0.25 -0.09 -2.58088 3.03209 0.0487271 0.0482693 0.000115226 0.048489 8.53259e-07 272.893 
-0.25 -0.01 -2.70085 3.5034 0.0485267 0.0481887 0.000123293 0.0483658 8.51854e-07 272.649 
-0.23 -0.49 -0.724636 0.0283109 0.0486929 0.048555 0.000127238 0.0486213 8.55135e-07 273.037 
-0.21 -0.49 -0.78363 -0.0544734 0.048726 0.0485631 0.000141827 0.0486537 8.54782e-07 273.332 
-0.19 -0.49 -0.798093 0.0615133 0.0487262 0.0486037 0.000179169 0.0486696 8.55581e-07 273.166 
-0.23 -0.47 -0.856694 0.0451343 0.0487483 0.0485493 0.000104971 0.0486522 8.55808e-07 272.996 
-0.17 -0.49 -0.95104 0.10307 0.0487374 0.0486041 0.00014548 0.0486785 8.55748e-07 273.163 
-0.21 -0.47 -0.997847 0.159554 0.0487396 0.0485218 0.000135422 0.0486407 8.5566e-07 272.979 
-0.15 -0.49 -1.05431 0.0280097 0.0487268 0.0486555 0.000171765 0.0486653 8.5597e-07 273.018 