ITEM: TIMESTEP
1007000
ITEM: NUMBER OF CELLS
2500
ITEM: BOX BOUNDS ss ss pp
-0.5 0.5
-0.5 0.5
-0.5 0.5
ITEM: CELLS xc yc f_U[*] f_V[*] f_Tau[1] f_Tau[2] f_Tau[3] f_Press[*] f_Mrho[*] f_Ttra[*] 
-0.49 -0.49 -0.0498727 0.00778072 0.0487235 0.0485902 -2.66333e-05 0.0487062 8.55991e-07 273.241 
-0.47 -0.49 -0.0484627 0.0326974 0.0486792 0.0485914 8.94876e-06 0.0486332 8.55179e-07 273.09 
-0.45 -0.49 -0.0552896 -0.000195077 0.0486724 0.048583 4.21642e-05 0.048628 8.55913e-07 272.827 
-0.49 -0.47 0.0446213 -0.0630057 0.0486729 0.0485801 -3.92654e-06 0.0486255 8.54789e-07 273.172 
-0.43 -0.49 -0.153982 0.0733439 0.0486526 0.0485298 -5.73533e-06 0.0485773 8.55125e-07 272.794 
-0.47 -0.47 0.0482831 0.0701577 0.0486925 0.0485877 -5.00224e-06 0.0486538 8.54834e-07 273.316 
-0.41 -0.49 -0.238606 0.000159214 0.0486688 0.0485286 3.49723e-05 0.048598 8.54901e-07 272.981 
-0.45 -0.47 -0.0489277 0.171569 0.0487019 0.0485629 3.16156e-05 0.0486285 8.55357e-07 273.007 
-0.49 -0.45 -0.00797837 -0.079606 0.0487152 0.0485878 -2.75378e-05 0.0486426 8.55056e-07 273.182 
-0.39 -0.49 -0.262873 0.0164896 0.0486834 0.0484821 5.05571e-06 0.0485806 8.54657e-07 272.962 
-0.43 -0.47 -0.0889116 0.0581278 0.0487005 0.0485475 1.90832e-05 0.0486248 8.55049e-07 273.084 
-0.47 -0.45 -0.102657 0.205761 0.0487044 0.0485501 1.24045e-05 0.0486314 8.55245e-07 273.059 
-0.37 -0.49 -0.347271 0.0618296 0.0487032 0.0485282 2.50266e-05 0.0486197 8.55857e-07 272.798 
-0.41 -0.47 -0.248649 0.238288 0.0486857 0.0484964 3.26286e-05 0.0486049 8.553e-07 272.893 
-0.45 -0.45 -0.23036 0.108561 0.0487427 0.0485604 1.41794e-06 0.0486615 8.56177e-07 272.931 
-0.49 -0.43 -0.105296 0.0598352 0.0487144 0.048561 -2.90437e-05 0.0486453 8.56323e-07 272.793 
-0.35 -0.49 -0.408651 0.0495216 0.0486934 0.0485137 7.30778e-05 0.04859 8.55164e-07 272.853 
-0.39 -0.47 -0.483713 0.170595 0.0486904 0.0484964 3.04098e-05 0.0486004 8.55165e-07 272.91 
-0.43 -0.45 -0.304887 0.240133 0.0487683 0.0485526 3.58324e-05 0.0486444 8.54756e-07 273.289 
-0.47 -0.43 -0.176712 0.197826 0.0487304 0.048539 -1.26866e-05 0.0486584 8.56244e-07 272.892 
-0.37 -0.47 -0.562363 0.0619316 0.0486414 0.0484701 3.5619e-05 0.048548 8.54027e-07 272.979 
-0.41 -0.45 -0.261129 0.30708 0.0487192 0.0484714 1.89383e-05 0.0485933 8.54748e-07 273.004 
-0.45 -0.43 -0.238945 0.319396 0.0487373 0.048569 -1.27452e-05 0.0486484 8.5586e-07 272.958 
-0.49 -0.41 -0.0070293 0.326476 0.0487462 0.0485251 -2.17448e-06 0.0485991 8.55665e-07 272.743 
-0.35 -0.47 -0.678003 0.0614088 0.0486887 0.0485004 8.43594e-05 0.0486063 8.55145e-07 272.95 
-0.39 -0.45 -0.35911 0.244097 0.0487423 0.0484781 6.65881e-05 0.0485987 8.54912e-07 272.982 
-0.43 -0.43 -0.31515 0.3154 0.0487603 0.0484984 1.6233e-05 0.0486342 8.55424e-07 273.018 
-0.47 -0.41 -0.313807 0.311787 0.0487538 0.0485839 -3.67961e-05 0.0486816 8.56742e-07 272.864 
-0.37 -0.45 -0.599819 0.325122 0.0487033 0.048509 5.00765e-05 0.0485982 8.54948e-07 272.968 
-0.41 -0.43 -0.484227 0.298371 0.0488048 0.0485029 3.38676e-05 0.0486524 8.55776e-07 273.007 
-0.45 -0.41 -0.36801 0.283401 0.0487638 0.0485213 -7.06391e-06 0.0486594 8.56102e-07 272.943 
-0.49 -0.39 -0.0714128 0.373356 0.0487432 0.048534 -1.04781e-05 0.0486264 8.5625e-07 272.711 
-0.35 -0.45 -0.739793 0.112928 0.0486728 0.04843 5.1026e-05 0.0485186 8.54527e-07 272.655 
-0.39 -0.43 -0.468711 0.397797 0.0487631 0.0484148 3.76984e-05 0.0485707 8.54241e-07 273.039 
-0.43 -0.41 -0.46851 0.420692 0.0487345 0.0485432 -9.23376e-07 0.0486407 8.55353e-07 273.077 
-0.47 -0.39 -0.0214446 0.414839 0.0487589 0.0485925 -4.30898e-05 0.0486643 8.56926e-07 272.708 
-0.37 -0.43 -0.602095 0.434253 0.0488087 0.0485037 8.69151e-05 0.0486332 8.5587e-07 272.87 
-0.41 -0.41 -0.473333 0.33666 0.0487069 0.0484284 3.12612e-05 0.0485411 8.54101e-07 272.917 
-0.45 -0.39 -0.103277 0.514822 0.0487532 0.0484491 -1.18368e-05 0.0486181 8.55996e-07 272.745 
-0.35 -0.43 -0.669335 0.2273 0.0488121 0.0484773 3.38822e-05 0.0486188 8.56362e-07 272.632 
-0.39 -0.41 -0.386807 0.359781 0.0487591 0.048443 3.00609e-05 0.0485819 8.5525e-07 272.78 
-0.43 -0.39 -0.255971 0.46562 0.0487913 0.0485596 2.60451e-05 0.0486795 8.56273e-07 273.001 
-0.37 -0.41 -0.380523 0.601346 0.0487656 0.0484734 4.69306e-05 0.0485929 8.55244e-07 272.843 
-0.41 -0.39 -0.355883 0.449664 0.048748 0.04842 2.62712e-06 0.0485912 8.54822e-07 272.968 
-0.35 -0.41 -0.738052 0.453785 0.0487631 0.0484945 3.85212e-05 0.0485794 8.55503e-07 272.685 
-0.39 -0.39 -0.596664 0.329456 0.0487671 0.0484376 2.2667e-05 0.0486061 8.55636e-07 272.792 
-0.37 -0.39 -0.651725 0.628893 0.0487852 0.0484594 3.85282e-05 0.0486106 8.55075e-07 272.996 
-0.35 -0.39 -0.611722 0.730467 0.0487987 0.0484993 8.34146e-05 0.0486224 8.55638e-07 272.883 
-0.37 -0.37 -0.834425 0.553495 0.0488297 0.0484449 1.35064e-05 0.0486235 8.54985e-07 273.098 
-0.33 -0.49 -0.544346 0.029159 0.0486621 0.0484717 9.72928e-05 0.048583 8.54799e-07 272.93 
-0.33 -0.47 -0.592528 0.180548 0.0486523 0.0484742 9.68939e-05 0.0485717 8.54724e-07 272.89 
-0.33 -0.43 -0.76991 0.113636 0.0487663 0.048476 4.77759e-05 0.0485936 8.55666e-07 272.713 
-0.49 -0.37 -0.0132897 0.359683 0.0487692 0.0485702 -5.25394e-05 0.0486649 8.56174e-07 272.951 
-0.47 -0.37 -0.112105 0.519836 0.0487974 0.048568 -3.98329e-05 0.0486888 8.56485e-07 272.986 
-0.45 -0.37 -0.394613 0.614163 0.048771 0.0484618 -1.46573e-05 0.0486274 8.55112e-07 273.079 
-0.49 -0.35 0.00973104 0.527882 0.0488307 0.048591 -5.46397e-05 0.0486888 8.56976e-07 272.829 
-0.43 -0.37 -0.589995 0.676954 0.0487841 0.0485044 2.97132e-06 0.0486526 8.55133e-07 273.214 
-0.47 -0.35 -0.161461 0.660018 0.0488216 0.0485253 -1.83194e-05 0.0486836 8.56079e-07 273.086 
-0.45 -0.35 -0.251275 0.840489 0.048791 0.0484432 5.67142e-06 0.0486627 8.55333e-07 273.207 
-0.49 -0.33 -0.134831 0.571255 0.0487876 0.0485065 -4.37617e-05 0.0486633 8.56742e-07 272.761 
-0.39 -0.37 -0.767091 0.531726 0.0487834 0.04839 2.2127e-06 0.048576 8.55245e-07 272.748 
-0.43 -0.35 -0.181088 0.53933 0.0488012 0.0484879 -3.84024e-05 0.0486619 8.55606e-07 273.115 
-0.47 -0.33 -0.11113 0.748535 0.0488043 0.0485062 -1.38531e-05 0.0486283 8.55547e-07 272.945 
-0.41 -0.35 -0.452944 0.804834 0.04879 0.0484394 4.22617e-05 0.048612 8.55348e-07 272.917 
-0.45 -0.33 -0.132834 0.845428 0.0488314 0.0484548 -2.82962e-05 0.0486281 8.55278e-07 273.03 
-0.49 -0.31 -0.0135034 0.676924 0.0487053 0.0484741 -7.50321e-05 0.0485719 8.54739e-07 272.886 
-0.39 -0.35 -0.649674 0.714469 0.0488275 0.048436 -9.58018e-06 0.0486052 8.55048e-07 272.975 
-0.43 -0.33 -0.422449 0.82461 0.0488437 0.0484669 1.49306e-05 0.0486307 8.54849e-07 273.182 
-0.47 -0.31 -0.165365 0.880729 0.0487428 0.0484843 -5.4379e-05 0.0485934 8.54892e-07 272.958 
-0.37 -0.35 -0.906074 0.752748 0.0487617 0.0483828 4.48035e-05 0.0485667 8.54869e-07 272.816 
-0.41 -0.33 -0.582421 0.845682 0.0488389 0.0484433 -4.96982e-06 0.0486323 8.55233e-07 273.068 
-0.45 -0.31 -0.21197 0.839511 0.0487971 0.0484741 -6.12863e-05 0.0486216 8.55406e-07 272.953 
-0.49 -0.29 -0.0711354 0.840711 0.0487517 0.0484638 -9.58496e-05 0.0485966 8.55451e-07 272.798 
-0.35 -0.35 -1.06793 0.85522 0.0487518 0.0484034 5.67494e-05 0.048592 8.55131e-07 272.874 
-0.39 -0.33 -0.69299 1.03077 0.0488146 0.0484068 3.85165e-05 0.0485837 8.55107e-07 272.836 
-0.43 -0.31 -0.322627 1.05585 0.048792 0.0484377 -4.70517e-05 0.0486061 8.55612e-07 272.8 
-0.47 -0.29 -0.166999 0.873118 0.0487618 0.048483 -7.86428e-05 0.0486347 8.56023e-07 272.829 
-0.37 -0.33 -0.788203 0.997126 0.0488126 0.0483809 5.22685e-05 0.0485878 8.54564e-07 273.032 
-0.41 -0.31 -0.677681 0.996991 0.0488431 0.0483968 2.83163e-05 0.0486366 8.55926e-07 272.871 
-0.45 -0.29 -0.223301 0.946381 0.0487711 0.0484575 -5.80538e-05 0.0486175 8.55577e-07 272.875 
-0.49 -0.27 -0.142177 0.974174 0.0488117 0.0484487 -8.85682e-05 0.048649 8.56152e-07 272.868 
-0.35 -0.33 -0.925159 0.85958 0.0488375 0.0484296 2.2718e-05 0.0486471 8.55532e-07 273.055 
-0.39 -0.31 -0.616229 1.05331 0.0488629 0.0484149 3.96691e-05 0.0486538 8.55648e-07 273.056 
-0.43 -0.29 -0.346773 1.22976 0.0487718 0.048382 -5.39172e-05 0.0485633 8.55384e-07 272.632 
-0.47 -0.27 -0.174999 0.943703 0.0488276 0.048457 -8.89818e-05 0.0486706 8.56344e-07 272.929 
-0.37 -0.31 -0.697162 1.06417 0.0488711 0.0484071 1.48127e-05 0.0486401 8.55335e-07 273.079 
-0.41 -0.29 -0.302821 1.11232 0.048809 0.0483332 -3.13849e-05 0.048576 8.54518e-07 272.98 
-0.45 -0.27 -0.290157 1.07169 0.0488377 0.0484166 -6.8456e-05 0.0486081 8.56338e-07 272.58 
-0.35 -0.31 -0.880239 1.18046 0.0488667 0.0484076 6.76009e-05 0.0486397 8.5546e-07 273.037 
-0.39 -0.29 -0.607935 1.24929 0.0488333 0.0484179 1.60432e-05 0.0486191 8.54823e-07 273.124 
-0.43 -0.27 -0.468415 1.26766 0.0488337 0.0483889 -2.78696e-05 0.0486098 8.55641e-07 272.811 
-0.37 -0.29 -0.785677 1.03567 0.0488331 0.0483953 4.32482e-05 0.0486346 8.54673e-07 273.26 
-0.41 -0.27 -0.609034 1.33851 0.0487909 0.0483198 -3.39232e-05 0.0485279 8.5491e-07 272.585 
-0.35 -0.29 -1.00756 1.43226 0.048831 0.0483897 5.9659e-05 0.0485892 8.54837e-07 272.952 
-0.39 -0.27 -0.907405 1.4203 0.0487912 0.048373 -7.84112e-06 0.0486009 8.54916e-07 272.993 
-0.33 -0.29 -1.09834 1.38043 0.0488568 0.0484093 4.99997e-05 0.0486268 8.55085e-07 273.085 
-0.37 -0.27 -1.11413 1.30426 0.0488342 0.0483693 2.58117e-05 0.0486053 8.54824e-07 273.047 
-0.35 -0.27 -1.23239 1.52945 0.0488486 0.0483957 3.05362e-05 0.0486056 8.55968e-07 272.684 
-0.33 -0.27 -1.34015 1.4611 0.0488419 0.0483689 8.27327e-05 0.0485641 8.54735e-07 272.844 
-0.41 -0.37 -0.580305 0.592622 0.0488315 0.0484604 2.04312e-05 0.0486488 8.55806e-07 272.977 
-0.35 -0.37 -0.838767 0.879385 0.048827 0.0484519 6.06452e-05 0.0486219 8.55638e-07 272.88 
-0.33 -0.37 -0.856074 0.529956 0.0488112 0.0484377 6.79924e-05 0.0486153 8.55183e-07 272.988 
-0.33 -0.35 -1.25613 0.79273 0.0488075 0.0484256 8.31662e-05 0.0486328 8.55361e-07 273.03 
-0.33 -0.31 -1.23732 1.0246 0.0488539 0.0483855 6.65756e-05 0.0486229 8.55302e-07 272.993 
-0.35 -0.25 -1.28421 1.60426 0.0488013 0.0483537 3.94956e-05 0.0485941 8.55231e-07 272.854 
-0.31 -0.49 -0.557725 -0.00138738 0.0486711 0.0485422 8.76157e-05 0.0486321 8.55035e-07 273.13 
-0.29 -0.49 -0.621124 0.0781693 0.0486571 0.0484822 9.13228e-05 0.0485895 8.547e-07 272.998 
-0.27 -0.49 -0.725922 -0.043515 0.0486539 0.0484542 0.000125929 0.048557 8.54968e-07 272.729 
-0.31 -0.47 -0.728834 -0.0182324 0.0486855 0.0485368 8.97884e-05 0.0486251 8.54326e-07 273.317 
-0.29 -0.47 -0.680515 0.115877 0.0486962 0.0484353 0.000119617 0.0485877 8.54598e-07 273.02 
-0.27 -0.47 -0.629066 0.0299177 0.0486973 0.0484573 0.000108276 0.0485573 8.54453e-07 272.896 
-0.31 -0.45 -0.622318 0.185254 0.0487567 0.048496 8.35314e-05 0.0486188 8.5548e-07 272.913 
-0.29 -0.45 -0.722601 0.0928122 0.0487406 0.0484503 0.00012655 0.0486091 8.54795e-07 273.077 
-0.27 -0.45 -1.0231 0.306194 0.0487382 0.0484667 0.000123542 0.0485798 8.54775e-07 272.919 
-0.31 -0.43 -1.04493 0.191634 0.0487521 0.0484326 9.11347e-05 0.0485988 8.55541e-07 272.781 
-0.29 -0.43 -1.21918 0.28846 0.0487766 0.0484448 0.000110827 0.0486116 8.55382e-07 272.904 
-0.27 -0.43 -1.16753 0.42155 0.0487886 0.0484801 0.000117896 0.0486179 8.54741e-07 273.144 
-0.31 -0.41 -1.10334 0.373278 0.0487773 0.0484019 0.000108258 0.0486028 8.55009e-07 272.974 
-0.25 -0.43 -1.22902 0.259859 0.04875 0.0484787 0.00012781 0.0486146 8.53937e-07 273.383 
-0.29 -0.41 -1.20768 0.335057 0.0487786 0.0484504 9.67403e-05 0.0486252 8.55451e-07 272.958 
-0.27 -0.41 -1.32943 0.354983 0.0487684 0.0484721 0.000141302 0.048616 8.55538e-07 272.879 
-0.31 -0.39 -0.9726 0.517765 0.0487833 0.0483938 9.21053e-05 0.0485812 8.54482e-07 273.021 
-0.25 -0.41 -1.33209 0.332718 0.048774 0.0484818 0.000118449 0.0486388 8.55208e-07 273.112 
-0.29 -0.39 -1.06028 0.348345 0.0488056 0.048399 0.00010244 0.0486098 8.55455e-07 272.871 
-0.27 -0.39 -1.22836 0.637697 0.0488355 0.0484717 0.000136181 0.0486966 8.56296e-07 273.089 
-0.31 -0.37 -1.08291 0.673379 0.0487941 0.0483826 8.62869e-05 0.0485966 8.54946e-07 272.959 
-0.25 -0.39 -1.50879 0.513239 0.0488266 0.0485023 0.000152018 0.0486785 8.55914e-07 273.11 
-0.29 -0.37 -1.28551 0.57002 0.0487962 0.0483801 8.51635e-05 0.048588 8.55468e-07 272.744 
-0.27 -0.37 -1.41774 0.685155 0.0488356 0.0484107 9.19587e-05 0.0486307 8.55265e-07 273.049 
-0.31 -0.35 -1.31889 0.677981 0.0488556 0.048413 5.22951e-05 0.0486486 8.55775e-07 272.986 
-0.29 -0.35 -1.32504 0.783902 0.0488503 0.0483667 7.16873e-05 0.0486215 8.55632e-07 272.88 
-0.27 -0.35 -1.53367 0.923248 0.0488524 0.0484118 8.3069e-05 0.048625 8.55528e-07 272.933 
-0.31 -0.33 -1.18315 0.891505 0.0488189 0.0483877 5.22931e-05 0.0486006 8.55379e-07 272.844 
-0.29 -0.33 -1.60165 1.03014 0.0488052 0.0483471 7.16147e-05 0.048575 8.55145e-07 272.775 
-0.27 -0.33 -1.66046 0.921184 0.0487978 0.0483943 0.000110211 0.0485808 8.55035e-07 272.842 
-0.31 -0.31 -1.31187 1.01422 0.0488443 0.0483651 7.59352e-05 0.0486141 8.54944e-07 273.058 
-0.29 -0.31 -1.41258 1.25479 0.0488343 0.0483549 8.26952e-05 0.0486177 8.55073e-07 273.037 
-0.27 -0.31 -1.73221 1.10616 0.0488161 0.048356 8.81106e-05 0.0485789 8.5425e-07 273.082 
-0.31 -0.29 -1.4598 1.26609 0.0488236 0.0483114 5.69773e-05 0.0485638 8.54043e-07 273.063 
-0.25 -0.31 -1.8955 1.18586 0.048808 0.0484327 0.000121791 0.0486334 8.54831e-07 273.202 
-0.29 -0.29 -1.81283 1.35486 0.0488285 0.0483562 7.69706e-05 0.0485982 8.54196e-07 273.208 
-0.27 -0.29 -1.79518 1.26434 0.048866 0.0483503 0.000118418 0.0485871 8.54369e-07 273.09 
-0.31 -0.27 -1.53272 1.57663 0.0488296 0.0483479 7.70914e-05 0.0486048 8.55212e-07 272.92 
-0.25 -0.29 -1.93847 1.24836 0.0488729 0.0484263 9.753e-05 0.0486483 8.55301e-07 273.136 
-0.29 -0.27 -1.58823 1.5909 0.0487868 0.0482995 0.000116757 0.0485439 8.53949e-07 272.981 
-0.27 -0.27 -1.89509 1.5032 0.0487667 0.0483418 7.24419e-05 0.0485572 8.53756e-07 273.118 
-0.25 -0.27 -2.13042 1.36073 0.0487754 0.0483543 0.000127742 0.0485807 8.54785e-07 272.921 
-0.33 -0.45 -0.740003 0.0500556 0.0487581 0.0485034 4.89101e-05 0.0485994 8.55573e-07 272.775 
-0.33 -0.41 -1.08794 0.366618 0.0488085 0.0484584 8.05234e-05 0.0485914 8.55607e-07 272.719 
-0.33 -0.39 -0.806986 0.495454 0.0487655 0.0484108 7.27236e-05 0.0485748 8.54805e-07 272.882 
-0.33 -0.33 -0.965701 0.907554 0.0488156 0.0483974 3.26677e-05 0.0486008 8.5463e-07 273.084 
-0.25 -0.49 -0.720891 0.0607306 0.0486005 0.0484655 0.000123155 0.0485742 8.55317e-07 272.715 
-0.25 -0.47 -0.80906 0.138834 0.0487256 0.0484874 8.99451e-05 0.0486034 8.55318e-07 272.879 
-0.25 -0.45 -1.1287 0.123377 0.0487309 0.048477 8.45442e-05 0.048603 8.54807e-07 273.039 
-0.25 -0.37 -1.60744 0.753637 0.0488663 0.048512 0.000134435 0.0486786 8.55813e-07 273.143 
-0.25 -0.35 -1.73765 0.866362 0.0488518 0.0484358 0.000117114 0.0486451 8.55954e-07 272.91 
-0.25 -0.33 -1.68583 1.11872 0.0487748 0.0484369 9.24253e-05 0.0486216 8.55151e-07 273.034 
-0.49 -0.25 -0.00734621 1.1875 0.0487732 0.0484414 -0.000124642 0.04865 8.5555e-07 273.066 
-0.47 -0.25 -0.29918 1.05742 0.0488154 0.0484184 -9.03965e-05 0.0486178 8.55418e-07 272.927 
-0.45 -0.25 -0.416256 1.15785 0.0487696 0.0483956 -5.21295e-05 0.0486199 8.55829e-07 272.808 
-0.49 -0.23 -0.00796086 1.24312 0.0487034 0.048433 -0.000158891 0.0485674 8.54739e-07 272.861 
-0.47 -0.23 -0.0899894 1.27259 0.0487297 0.0483747 -0.000115853 0.0485373 8.54404e-07 272.799 
-0.45 -0.23 -0.488033 1.34366 0.0487666 0.0483592 -9.08229e-05 0.0486079 8.54973e-07 273.014 
-0.49 -0.21 -0.0764861 1.32234 0.0487283 0.0484379 -0.000167714 0.0485808 8.551e-07 272.821 
-0.43 -0.23 -0.502442 1.37475 0.0488016 0.0483818 -6.35579e-05 0.0486139 8.54813e-07 273.099 
-0.47 -0.21 -0.256916 1.47878 0.0487582 0.0483201 -0.000160535 0.0485582 8.54137e-07 273.001 
-0.41 -0.23 -0.752306 1.80538 0.0488109 0.0482884 -2.97875e-05 0.0485563 8.54398e-07 272.908 
-0.45 -0.21 -0.236032 1.45871 0.0487835 0.0483415 -8.15704e-05 0.0485914 8.54493e-07 273.074 
-0.49 -0.19 -0.0498462 1.4388 0.0488136 0.0484153 -0.000157196 0.0486083 8.55236e-07 272.932 
-0.39 -0.23 -0.740098 1.80643 0.0488186 0.0483129 2.78931e-06 0.0485786 8.54067e-07 273.139 
-0.43 -0.21 -0.643012 1.63245 0.0487957 0.0483504 -5.95896e-05 0.0486062 8.54739e-07 273.079 
-0.47 -0.19 -0.103254 1.5894 0.048769 0.0482942 -0.000120049 0.0485644 8.54459e-07 272.933 
-0.41 -0.21 -0.75301 1.86329 0.0488026 0.048261 -2.84207e-05 0.0485738 8.5409e-07 273.105 
-0.45 -0.19 -0.423113 1.77915 0.0487667 0.0483085 -9.65111e-05 0.0485643 8.53732e-07 273.166 
-0.49 -0.17 0.0577628 1.35308 0.0487277 0.048392 -0.000160579 0.0485688 8.55415e-07 272.653 
-0.39 -0.21 -0.952565 2.07303 0.048814 0.0483183 -3.75144e-05 0.0485895 8.54657e-07 273.011 
-0.43 -0.19 -0.627834 1.85518 0.0487847 0.0483122 -8.83551e-05 0.0485822 8.54407e-07 273.05 
-0.47 -0.17 -0.17208 2.02586 0.0487528 0.0482525 -0.000124136 0.0485082 8.5346e-07 272.937 
-0.41 -0.19 -0.826102 1.98874 0.0488116 0.0482693 -5.60325e-05 0.0485586 8.54132e-07 273.005 
-0.45 -0.17 -0.308409 1.89281 0.0487988 0.0483145 -0.00014401 0.0485881 8.54322e-07 273.111 
-0.49 -0.15 -0.106337 1.46011 0.0486883 0.048315 -0.000172057 0.0485099 8.53985e-07 272.779 
-0.39 -0.19 -0.962218 2.19266 0.0488192 0.0482846 -5.1982e-05 0.0485553 8.54241e-07 272.952 
-0.43 -0.17 -0.490573 2.05339 0.0487978 0.048262 -9.67299e-05 0.0485769 8.5435e-07 273.039 
-0.47 -0.15 0.121582 1.90932 0.0487254 0.0482704 -0.000160132 0.0484856 8.53352e-07 272.844 
-0.41 -0.17 -0.646826 2.18344 0.0487788 0.048256 -6.15552e-05 0.0485317 8.53023e-07 273.209 
-0.45 -0.15 -0.0859288 2.15853 0.0487374 0.0482764 -0.000147015 0.0485257 8.5333e-07 273.077 
-0.39 -0.17 -0.816917 2.27545 0.0487705 0.0482593 -5.12757e-05 0.0485078 8.53504e-07 272.921 
-0.43 -0.15 -0.312389 2.20003 0.0487405 0.0481866 -7.23169e-05 0.0484783 8.53062e-07 272.896 
-0.41 -0.15 -0.533664 2.38853 0.0487614 0.0482515 -5.46477e-05 0.0485162 8.53329e-07 273.024 
-0.39 -0.15 -0.835452 2.65493 0.048762 0.048257 -5.51163e-05 0.0485128 8.54115e-07 272.753 
-0.43 -0.25 -0.396394 1.41978 0.0487718 0.0483955 -2.42209e-05 0.0485782 8.55294e-07 272.745 
-0.41 -0.25 -0.442389 1.57223 0.0488002 0.0482819 -2.88781e-05 0.0485571 8.54795e-07 272.785 
-0.39 -0.25 -0.827605 1.65647 0.0488102 0.0483703 -2.07828e-05 0.0485877 8.55127e-07 272.852 
-0.33 -0.25 -1.47363 1.74133 0.0487892 0.0483375 6.51986e-05 0.048575 8.54915e-07 272.848 
-0.37 -0.25 -1.10045 1.48507 0.0487919 0.0483394 1.1095e-05 0.0485874 8.55269e-07 272.804 
-0.37 -0.23 -1.07435 1.92714 0.0488525 0.0483614 -1.28438e-07 0.0486489 8.5581e-07 272.977 
-0.35 -0.23 -1.31241 1.87811 0.0488416 0.0483007 1.95814e-05 0.0486078 8.5529e-07 272.912 
-0.37 -0.21 -1.07182 2.07605 0.0488097 0.0482946 -3.07684e-06 0.0485884 8.54849e-07 272.944 
-0.35 -0.21 -1.22679 2.09795 0.0488216 0.0482969 3.62082e-05 0.0485802 8.54925e-07 272.873 
-0.33 -0.21 -1.43277 2.03028 0.0488271 0.0482783 4.84188e-05 0.0485682 8.5525e-07 272.703 
-0.37 -0.19 -1.05389 2.2006 0.0488213 0.0482697 -1.04595e-05 0.0485536 8.54392e-07 272.894 
-0.35 -0.19 -1.16515 2.16551 0.0488328 0.0482696 2.36853e-05 0.0485499 8.55098e-07 272.648 
-0.33 -0.19 -1.32956 2.23721 0.0488442 0.0482454 3.64057e-05 0.0485503 8.54641e-07 272.796 
-0.37 -0.17 -0.93523 2.40327 0.0487969 0.0482341 -2.87424e-05 0.0485366 8.53805e-07 272.986 
-0.35 -0.17 -1.30156 2.49801 0.0487962 0.0482312 2.46574e-05 0.0485322 8.54177e-07 272.843 
-0.33 -0.17 -1.48387 2.36982 0.04881 0.0482362 3.19125e-05 0.0485155 8.54498e-07 272.646 
-0.37 -0.15 -1.25812 2.59512 0.0487617 0.0481899 -1.40507e-05 0.0484476 8.52647e-07 272.856 
-0.35 -0.15 -1.32377 2.56552 0.0487661 0.0482017 -1.82074e-05 0.0484766 8.54135e-07 272.543 
-0.33 -0.15 -1.47536 2.58819 0.0487932 0.0482374 9.42468e-06 0.0485 8.54388e-07 272.595 
-0.37 -0.13 -1.11778 2.69934 0.0487972 0.048185 -1.48092e-05 0.0484959 8.53418e-07 272.881 
-0.35 -0.13 -1.33454 2.909 0.0487446 0.0481756 -1.49241e-05 0.0484565 8.53703e-07 272.569 
-0.33 -0.13 -1.60087 2.69879 0.0487427 0.0481953 3.55447e-05 0.0484513 8.53661e-07 272.553 
-0.37 -0.11 -1.09201 3.05621 0.0487812 0.0481485 -1.05475e-05 0.0484714 8.52611e-07 273.001 
-0.35 -0.11 -1.45559 2.97836 0.0487669 0.0481854 2.03851e-05 0.0484567 8.53181e-07 272.736 
-0.33 -0.11 -1.67073 2.96469 0.0487596 0.0481551 7.42526e-06 0.0484382 8.53e-07 272.69 
-0.35 -0.09 -1.48151 3.39212 0.0487562 0.0481895 1.9505e-05 0.0484881 8.52793e-07 273.037 
-0.49 -0.13 -0.070991 1.52546 0.0486777 0.0482811 -0.000196282 0.0484654 8.53398e-07 272.716 
-0.47 -0.13 -0.221977 1.93698 0.0486957 0.0482423 -0.000196332 0.0484527 8.52841e-07 272.823 
-0.45 -0.13 -0.196094 2.35403 0.0487232 0.0482408 -0.000144849 0.0484597 8.52925e-07 272.835 
-0.49 -0.11 -0.0273897 1.67776 0.0487187 0.0482971 -0.000235691 0.0484878 8.52665e-07 273.076 
-0.43 -0.13 -0.399594 2.44986 0.048728 0.0481353 -0.000136666 0.0484435 8.52163e-07 272.988 
-0.47 -0.11 -0.263684 2.09137 0.0487176 0.0482343 -0.000188567 0.0484766 8.52831e-07 272.96 
-0.41 -0.13 -0.790963 2.63169 0.0487958 0.0482296 -8.4888e-05 0.0485001 8.5308e-07 273.013 
-0.45 -0.11 -0.443446 2.3712 0.0487331 0.048195 -0.000170438 0.048473 8.52222e-07 273.135 
-0.49 -0.09 -0.179062 1.89318 0.0486031 0.0482395 -0.000231947 0.0484119 8.52191e-07 272.801 
-0.39 -0.13 -0.945641 2.94933 0.0488003 0.048235 -2.81016e-05 0.0485333 8.53648e-07 273.018 
-0.43 -0.11 -0.572436 2.7547 0.048752 0.0481283 -0.000137049 0.0484555 8.51794e-07 273.174 
-0.47 -0.09 -0.375387 2.37165 0.0486415 0.048224 -0.000222596 0.0484451 8.52365e-07 272.932 
-0.41 -0.11 -0.59911 2.84936 0.0487389 0.0481775 -0.000105899 0.0484684 8.52645e-07 272.973 
-0.45 -0.09 -0.676644 2.54882 0.0486645 0.0481679 -0.00019022 0.0483926 8.52084e-07 272.726 
-0.39 -0.11 -1.02495 3.124 0.0487489 0.0481627 -6.20416e-05 0.0484884 8.5236e-07 273.177 
-0.43 -0.09 -0.828271 2.8068 0.0486759 0.048084 -0.000158278 0.0484141 8.51849e-07 272.922 
-0.41 -0.09 -0.950029 2.99232 0.048718 0.0481139 -0.000119902 0.0484436 8.52627e-07 272.84 
-0.39 -0.09 -0.888993 3.24017 0.048716 0.0481473 -4.88934e-05 0.0484301 8.52353e-07 272.851 
-0.37 -0.09 -1.18148 3.2885 0.0487093 0.0481071 -3.15207e-05 0.0484201 8.52004e-07 272.907 
-0.35 -0.03 -1.75642 3.89287 0.048576 0.0480295 -3.03365e-05 0.0483053 8.50395e-07 272.775 
-0.37 -0.07 -1.3418 3.54427 0.0487098 0.048075 -4.40131e-05 0.0484179 8.52214e-07 272.827 
-0.41 -0.05 -0.999786 3.35243 0.0486297 0.0480271 -0.000137265 0.048334 8.50796e-07 272.809 
-0.45 -0.03 -0.515495 3.33949 0.0485582 0.0480253 -0.000255379 0.0483165 8.50464e-07 272.816 
-0.35 -0.07 -1.55863 3.66568 0.0487164 0.0481111 5.43918e-06 0.0484166 8.52204e-07 272.823 
-0.39 -0.05 -1.26217 3.5474 0.0486145 0.0480803 -0.000104691 0.0483423 8.50597e-07 272.919 
-0.43 -0.03 -0.715458 3.68488 0.0485429 0.0479996 -0.000196999 0.0482917 8.50114e-07 272.788 
-0.33 -0.07 -1.71543 3.50796 0.0487595 0.0481262 2.60392e-05 0.0484551 8.52679e-07 272.888 
-0.37 -0.05 -1.45689 3.92427 0.048602 0.0480282 -9.41452e-05 0.0483154 8.50107e-07 272.924 
-0.41 -0.03 -0.93571 3.59928 0.0485885 0.0480233 -0.000143394 0.0482908 8.49872e-07 272.861 
-0.35 -0.05 -1.60177 3.63266 0.0486118 0.0480645 -4.68858e-05 0.0483408 8.50745e-07 272.863 
-0.39 -0.03 -1.28963 3.88623 0.048602 0.048046 -0.000120352 0.0483291 8.49818e-07 273.095 
-0.33 -0.05 -1.81822 3.81432 0.0486204 0.0480506 2.14638e-05 0.0483594 8.51808e-07 272.627 
-0.37 -0.03 -1.58617 3.96659 0.0486278 0.0479655 -4.10414e-05 0.0482688 8.49959e-07 272.708 
-0.33 -0.03 -1.99324 4.08192 0.0485772 0.048007 2.27293e-05 0.048316 8.49946e-07 272.98 
-0.49 -0.07 0.0340794 2.04004 0.0485836 0.0482218 -0.000249463 0.0484119 8.5175e-07 272.942 
-0.47 -0.07 -0.168144 2.53083 0.0485867 0.0481871 -0.000227564 0.0484294 8.51805e-07 273.023 
-0.45 -0.07 -0.360899 2.8813 0.0486207 0.0481133 -0.000204903 0.0483756 8.51753e-07 272.736 
-0.49 -0.05 -0.126256 2.13783 0.0484861 0.0481823 -0.000299182 0.0483124 8.49808e-07 273.003 
-0.43 -0.07 -0.735529 3.07766 0.0485962 0.048104 -0.000160334 0.0483723 8.51032e-07 272.949 
-0.47 -0.05 -0.31504 2.78689 0.0485509 0.0481856 -0.0002779 0.0483797 8.51112e-07 272.965 
-0.41 -0.07 -0.924855 3.12048 0.0485834 0.0480593 -0.000130205 0.0483235 8.50478e-07 272.851 
-0.45 -0.05 -0.426147 3.08399 0.0485595 0.0480314 -0.000221221 0.0483005 8.50096e-07 272.844 
-0.49 -0.03 -0.042566 2.35243 0.0485186 0.0481496 -0.000336654 0.0483259 8.5028e-07 272.928 
-0.39 -0.07 -1.09698 3.36367 0.0486422 0.0480928 -0.000108396 0.0483838 8.51736e-07 272.788 
-0.43 -0.05 -0.645867 3.36813 0.0486495 0.0480888 -0.000164842 0.0483831 8.51478e-07 272.867 
-0.47 -0.03 -0.271968 2.89629 0.0485547 0.0481213 -0.000266377 0.0483393 8.50641e-07 272.888 
-0.27 -0.07 -2.51911 3.48787 0.0486666 0.0481849 0.00010114 0.0484499 8.52503e-07 272.915 
-0.31 -0.05 -2.10294 3.82801 0.0486447 0.0480719 7.6667e-05 0.0483937 8.51978e-07 272.766 
-0.27 -0.09 -2.33972 3.35572 0.0487475 0.0481877 0.000100154 0.048477 8.53159e-07 272.858 
-0.31 -0.07 -2.06265 3.40899 0.0487365 0.0481009 6.77184e-05 0.0484365 8.52844e-07 272.731 
-0.29 -0.07 -2.45594 3.69805 0.0486862 0.0481485 0.000108579 0.0484138 8.51944e-07 272.89 
-0.25 -0.07 -2.50997 2.97642 0.0486859 0.0482025 0.000110216 0.0484502 8.52525e-07 272.91 
-0.29 -0.05 -2.14666 3.71675 0.0486783 0.0481536 9.3528e-05 0.0484049 8.52016e-07 272.817 
-0.27 -0.05 -2.38519 3.5325 0.0486813 0.0481816 8.18361e-05 0.0484243 8.51689e-07 273.031 
-0.31 -0.03 -2.1662 3.96342 0.0485871 0.0480515 1.32658e-05 0.0483108 8.50196e-07 272.87 
-0.25 -0.05 -2.49718 3.1789 0.0487023 0.0481896 9.50439e-05 0.0484454 8.52293e-07 272.957 
-0.29 -0.03 -2.24473 3.86906 0.0486038 0.0481059 4.25627e-05 0.0483647 8.51019e-07 272.91 
-0.27 -0.03 -2.40549 3.69602 0.048654 0.0481815 8.33166e-05 0.0484385 8.52804e-07 272.755 
-0.25 -0.03 -2.34965 3.15443 0.0486395 0.0481865 9.29346e-05 0.0484264 8.52507e-07 272.781 
-0.27 -0.01 -2.2451 3.78082 0.0485376 0.0481312 8.17771e-05 0.0483788 8.51275e-07 272.908 
-0.31 -0.25 -1.7964 1.79847 0.0488427 0.0483175 0.000113474 0.0485747 8.54631e-07 272.936 
-0.29 -0.25 -1.91098 1.71462 0.0488738 0.0483231 8.99041e-05 0.0485922 8.54807e-07 272.979 
-0.27 -0.25 -1.96503 1.63798 0.048867 0.0483367 9.09827e-05 0.0486041 8.54703e-07 273.079 
-0.29 -0.11 -2.07212 2.96791 0.0487746 0.0481917 7.76117e-05 0.0485166 8.54009e-07 272.809 
-0.33 -0.09 -1.81085 3.19852 0.0487595 0.0481465 4.76743e-05 0.0484226 8.52469e-07 272.772 
-0.27 -0.11 -2.26678 3.08963 0.0487727 0.0482194 9.9212e-05 0.0484972 8.53654e-07 272.813 
-0.31 -0.09 -1.93505 3.33462 0.0487053 0.0481169 6.19514e-05 0.0484191 8.51581e-07 273.037 
-0.29 -0.09 -2.11406 3.32015 0.0487286 0.0481787 6.55677e-05 0.0484545 8.5294e-07 272.801 
-0.33 -0.23 -1.5293 1.76702 0.0488514 0.0483284 9.4331e-05 0.0486282 8.55873e-07 272.841 
-0.31 -0.23 -1.50672 2.05948 0.0488336 0.048282 5.655e-05 0.0485564 8.54431e-07 272.897 
-0.29 -0.23 -1.76311 1.77299 0.0488391 0.0483635 9.6254e-05 0.0486272 8.55196e-07 273.051 
-0.27 -0.23 -1.98846 1.6791 0.0488437 0.0483147 6.25411e-05 0.048576 8.54426e-07 273.009 
-0.31 -0.21 -1.64349 2.04649 0.0488578 0.0482989 6.00164e-05 0.0485995 8.56111e-07 272.604 
-0.29 -0.21 -1.74076 1.96652 0.0488797 0.0483426 6.27678e-05 0.0486272 8.55821e-07 272.852 
-0.27 -0.21 -1.72144 1.86882 0.0488715 0.0483192 0.00012517 0.0486011 8.55581e-07 272.782 
-0.31 -0.19 -1.53753 2.27048 0.0488556 0.048308 4.98448e-05 0.0485448 8.54725e-07 272.738 
-0.25 -0.21 -2.01789 1.75825 0.0488763 0.0482503 8.93304e-05 0.0485936 8.55098e-07 272.894 
-0.29 -0.19 -1.74055 2.10768 0.0488407 0.048293 8.94635e-05 0.0485526 8.55158e-07 272.644 
-0.27 -0.19 -1.96536 1.97086 0.0488339 0.0482833 0.000119976 0.0485508 8.542e-07 272.94 
-0.31 -0.17 -1.60033 2.3004 0.0487826 0.0482758 2.14088e-05 0.0485218 8.54182e-07 272.783 
-0.25 -0.19 -2.1922 2.12043 0.0488318 0.0482856 0.000116198 0.0485516 8.54715e-07 272.78 
-0.29 -0.17 -1.76762 2.35408 0.0488086 0.0482812 9.46047e-05 0.0485427 8.54001e-07 272.958 
-0.27 -0.17 -2.15146 2.4506 0.0488016 0.0482707 0.000111867 0.0485518 8.54438e-07 272.87 
-0.31 -0.15 -1.6792 2.59676 0.0487631 0.0482229 6.30224e-05 0.048484 8.53551e-07 272.772 
-0.25 -0.17 -2.52114 2.27807 0.0488335 0.0482856 0.000120412 0.0485422 8.53814e-07 273.015 
-0.29 -0.15 -1.96246 2.63382 0.0487376 0.0482054 0.00011344 0.0484639 8.53149e-07 272.787 
-0.27 -0.15 -2.21312 2.66762 0.0487612 0.0483203 0.000101956 0.0485572 8.54262e-07 272.956 
-0.31 -0.13 -1.89365 2.90811 0.0487617 0.0481953 6.42286e-05 0.0484718 8.53328e-07 272.774 
-0.25 -0.15 -2.31011 2.49656 0.0487546 0.0482625 0.000109445 0.0484995 8.53415e-07 272.902 
-0.29 -0.13 -2.16964 2.90643 0.0487756 0.0481942 6.96261e-05 0.048504 8.5428e-07 272.651 
-0.27 -0.13 -2.48295 2.81329 0.0487638 0.0482656 9.58924e-05 0.0485233 8.54089e-07 272.821 
-0.31 -0.11 -1.90043 3.36708 0.0487896 0.048166 5.55194e-05 0.0484865 8.52818e-07 273.02 
-0.25 -0.13 -2.51682 2.59685 0.0487822 0.0482474 0.000127527 0.0484975 8.53835e-07 272.757 
-0.25 -0.25 -1.97722 1.44671 0.0488569 0.0483483 0.000117159 0.0486079 8.55471e-07 272.855 
-0.25 -0.23 -2.14169 1.6619 0.0488205 0.0482923 0.00011921 0.0485496 8.54428e-07 272.861 
-0.25 -0.11 -2.48783 2.76637 0.0487743 0.0482414 9.68076e-05 0.048489 8.53102e-07 272.943 
-0.25 -0.09 -2.63292 2.87355 0.0487536 0.0482629 0.000125635 0.0485074 8.53182e-07 273.022 
-0.25 -0.01 -2.63404 3.44518 0.0485181 0.0481622 0.000131289 0.0483398 8.51325e-07 272.671 
-0.23 -0.49 -0.824668 0.0249768 0.048654 0.0485468 0.000121462 0.048596 8.549e-07 272.971 
-0.21 -0.49 -0.841381 -0.0524962 0.0486939 0.0485237 0.000156737 0.0486176 8.54092e-07 273.35 
-0.19 -0.49 -0.896817 0.0859717 0.0487163 0.0485815 0.00018708 0.0486575 8.55541e-07 273.111 
-0.23 -0.47 -0.835008 0.0996109 0.0487226 0.0485417 0.000108834 0.0486368 8.55827e-07 272.903 
-0.17 -0.49 -1.05536 0.094625 0.0487124 0.0485986 0.000145627 0.0486601 8.556e-07 273.107 
-0.21 -0.47 -1.00329 0.125176 0.0487211 0.0484888 0.000134713 0.0486065 8.55486e-07 272.842 
-0.15 -0.49 -1.07446 0.00232431 0.0486932 0.0486217 0.000192511 0.0486367 8.55633e-07 272.965 